<?xml version="1.0" encoding="UTF-8"?>

<!-- generated on 2025-05-27 17:45:53 by Eclipse SUMO sumo Version 1.22.0
<sumoConfiguration xmlns:xsi="http://www.w3.org/2001/XMLSchema-instance" xsi:noNamespaceSchemaLocation="http://sumo.dlr.de/xsd/sumoConfiguration.xsd">

    <input>
        <net-file value="E:/licenta/oras-mic/2025-05-08-13-35-40/osm.net.xml"/>
        <route-files value="E:/licenta/oras-mic/2025-05-08-13-35-40/routes.rou.xml"/>
        <additional-files value="E:/licenta/oras-mic/2025-05-08-13-35-40/osm.poly.xml"/>
    </input>

    <output>
        <summary-output value="E:/licenta/oras-mic/2025-05-08-13-35-40/summary.xml"/>
        <tripinfo-output value="E:/licenta/oras-mic/2025-05-08-13-35-40/tripinfo.xml"/>
    </output>

    <processing>
        <ignore-route-errors value="true"/>
        <tls.actuated.jam-threshold value="30"/>
    </processing>

    <routing>
        <device.rerouting.adaptation-steps value="18"/>
        <device.rerouting.adaptation-interval value="10"/>
    </routing>

    <report>
        <verbose value="true"/>
        <duration-log.statistics value="true"/>
        <no-step-log value="true"/>
    </report>

    <traci_server>
        <remote-port value="58602"/>
    </traci_server>

</sumoConfiguration>
-->

<tripinfos xmlns:xsi="http://www.w3.org/2001/XMLSchema-instance" xsi:noNamespaceSchemaLocation="http://sumo.dlr.de/xsd/tripinfo_file.xsd">
    <tripinfo id="veh0" depart="0.00" departLane="E3_0" departPos="56.72" departSpeed="0.00" departDelay="0.00" arrival="51.00" arrivalLane="649040853#2_0" arrivalPos="953.89" arrivalSpeed="22.80" duration="51.00" routeLength="1032.76" waitingTime="0.00" waitingCount="0" stopTime="0.00" timeLoss="6.06" rerouteNo="0" devices="tripinfo_veh0" vType="DEFAULT_VEHTYPE" speedFactor="1.06" vaporized=""/>
    <tripinfo id="veh6" depart="15.00" departLane="223632520#0_0" departPos="41.37" departSpeed="0.00" departDelay="0.24" arrival="80.00" arrivalLane="E4_0" arrivalPos="127.56" arrivalSpeed="13.56" duration="65.00" routeLength="788.31" waitingTime="0.00" waitingCount="0" stopTime="0.00" timeLoss="9.88" rerouteNo="0" devices="tripinfo_veh6" vType="DEFAULT_VEHTYPE" speedFactor="1.05" vaporized=""/>
    <tripinfo id="veh15" depart="37.00" departLane="E4_0" departPos="57.67" departSpeed="0.00" departDelay="0.10" arrival="86.00" arrivalLane="-223632520#0_0" arrivalPos="55.66" arrivalSpeed="14.31" duration="49.00" routeLength="569.12" waitingTime="0.00" waitingCount="0" stopTime="0.00" timeLoss="9.87" rerouteNo="0" devices="tripinfo_veh15" vType="DEFAULT_VEHTYPE" speedFactor="1.12" vaporized=""/>
    <tripinfo id="veh20" depart="50.00" departLane="-223632525#2_0" departPos="98.71" departSpeed="0.00" departDelay="0.80" arrival="88.00" arrivalLane="-223632525#0_0" arrivalPos="198.61" arrivalSpeed="11.74" duration="38.00" routeLength="431.66" waitingTime="0.00" waitingCount="0" stopTime="0.00" timeLoss="4.71" rerouteNo="0" devices="tripinfo_veh20" vType="DEFAULT_VEHTYPE" speedFactor="0.94" vaporized=""/>
    <tripinfo id="veh2" depart="5.00" departLane="-649040853#1_0" departPos="1.91" departSpeed="0.00" departDelay="0.08" arrival="93.00" arrivalLane="-258728090#0_0" arrivalPos="274.43" arrivalSpeed="12.75" duration="88.00" routeLength="761.17" waitingTime="20.00" waitingCount="1" stopTime="0.00" timeLoss="32.53" rerouteNo="0" devices="tripinfo_veh2" vType="DEFAULT_VEHTYPE" speedFactor="1.01" vaporized=""/>
    <tripinfo id="veh13" depart="32.00" departLane="E1_0" departPos="132.43" departSpeed="0.00" departDelay="0.02" arrival="98.00" arrivalLane="223632520#1_0" arrivalPos="90.94" arrivalSpeed="10.07" duration="66.00" routeLength="582.66" waitingTime="10.00" waitingCount="1" stopTime="0.00" timeLoss="24.14" rerouteNo="0" devices="tripinfo_veh13" vType="DEFAULT_VEHTYPE" speedFactor="1.05" vaporized=""/>
    <tripinfo id="veh32" depart="79.00" departLane="-223632525#2_0" departPos="9.94" departSpeed="0.00" departDelay="0.28" arrival="102.00" arrivalLane="-223632525#2_0" arrivalPos="306.58" arrivalSpeed="15.55" duration="23.00" routeLength="296.64" waitingTime="0.00" waitingCount="0" stopTime="0.00" timeLoss="4.45" rerouteNo="0" devices="tripinfo_veh32" vType="DEFAULT_VEHTYPE" speedFactor="1.18" vaporized=""/>
    <tripinfo id="veh10" depart="25.00" departLane="223632517_0" departPos="2.53" departSpeed="0.00" departDelay="0.40" arrival="105.00" arrivalLane="649036317#3_0" arrivalPos="113.32" arrivalSpeed="14.51" duration="80.00" routeLength="897.51" waitingTime="5.00" waitingCount="1" stopTime="0.00" timeLoss="18.86" rerouteNo="0" devices="tripinfo_veh10" vType="DEFAULT_VEHTYPE" speedFactor="1.09" vaporized=""/>
    <tripinfo id="veh18" depart="45.00" departLane="E3_0" departPos="3.84" departSpeed="0.00" departDelay="0.72" arrival="106.00" arrivalLane="649040853#1_0" arrivalPos="42.41" arrivalSpeed="14.02" duration="61.00" routeLength="117.78" waitingTime="42.00" waitingCount="1" stopTime="0.00" timeLoss="52.90" rerouteNo="0" devices="tripinfo_veh18" vType="DEFAULT_VEHTYPE" speedFactor="0.88" vaporized=""/>
    <tripinfo id="veh33" depart="82.00" departLane="-E3_0" departPos="19.21" departSpeed="0.00" departDelay="0.82" arrival="108.00" arrivalLane="-223632520#2_0" arrivalPos="266.10" arrivalSpeed="15.32" duration="26.00" routeLength="322.57" waitingTime="0.00" waitingCount="0" stopTime="0.00" timeLoss="4.84" rerouteNo="0" devices="tripinfo_veh33" vType="DEFAULT_VEHTYPE" speedFactor="1.15" vaporized=""/>
    <tripinfo id="veh5" depart="13.00" departLane="-649040853#1_0" departPos="1.83" departSpeed="0.00" departDelay="0.70" arrival="113.00" arrivalLane="649064896#1_0" arrivalPos="201.76" arrivalSpeed="10.52" duration="100.00" routeLength="576.44" waitingTime="32.00" waitingCount="2" stopTime="0.00" timeLoss="49.61" rerouteNo="0" devices="tripinfo_veh5" vType="DEFAULT_VEHTYPE" speedFactor="0.83" vaporized=""/>
    <tripinfo id="veh11" depart="28.00" departLane="223632522_0" departPos="55.77" departSpeed="0.00" departDelay="0.94" arrival="122.00" arrivalLane="258728090#4_0" arrivalPos="89.71" arrivalSpeed="8.38" duration="94.00" routeLength="646.32" waitingTime="17.00" waitingCount="1" stopTime="0.00" timeLoss="48.84" rerouteNo="0" devices="tripinfo_veh11" vType="DEFAULT_VEHTYPE" speedFactor="1.03" vaporized=""/>
    <tripinfo id="veh29" depart="72.00" departLane="-E3_0" departPos="25.25" departSpeed="0.00" departDelay="0.66" arrival="130.00" arrivalLane="-223632525#0_0" arrivalPos="198.61" arrivalSpeed="12.92" duration="58.00" routeLength="633.22" waitingTime="0.00" waitingCount="0" stopTime="0.00" timeLoss="8.29" rerouteNo="0" devices="tripinfo_veh29" vType="DEFAULT_VEHTYPE" speedFactor="0.95" vaporized=""/>
    <tripinfo id="veh25" depart="62.00" departLane="E4_0" departPos="80.81" departSpeed="0.00" departDelay="0.50" arrival="138.00" arrivalLane="-258728090#2_0" arrivalPos="442.46" arrivalSpeed="12.12" duration="76.00" routeLength="794.28" waitingTime="0.00" waitingCount="0" stopTime="0.00" timeLoss="10.18" rerouteNo="0" devices="tripinfo_veh25" vType="DEFAULT_VEHTYPE" speedFactor="0.89" vaporized=""/>
    <tripinfo id="veh31" depart="77.00" departLane="223632522_0" departPos="19.62" departSpeed="0.00" departDelay="0.74" arrival="138.00" arrivalLane="649040853#2_0" arrivalPos="953.89" arrivalSpeed="20.57" duration="61.00" routeLength="1026.20" waitingTime="0.00" waitingCount="0" stopTime="0.00" timeLoss="7.67" rerouteNo="0" devices="tripinfo_veh31" vType="DEFAULT_VEHTYPE" speedFactor="0.93" vaporized=""/>
    <tripinfo id="veh8" depart="20.00" departLane="-223632517_0" departPos="226.26" departSpeed="0.00" departDelay="0.32" arrival="145.00" arrivalLane="-E1_0" arrivalPos="283.45" arrivalSpeed="9.65" duration="125.00" routeLength="1328.71" waitingTime="0.00" waitingCount="0" stopTime="0.00" timeLoss="20.90" rerouteNo="0" devices="tripinfo_veh8" vType="DEFAULT_VEHTYPE" speedFactor="0.94" vaporized=""/>
    <tripinfo id="veh17" depart="42.00" departLane="E4_0" departPos="33.74" departSpeed="0.00" departDelay="0.18" arrival="148.00" arrivalLane="649036317#3_0" arrivalPos="113.32" arrivalSpeed="12.57" duration="106.00" routeLength="619.92" waitingTime="42.00" waitingCount="1" stopTime="0.00" timeLoss="56.27" rerouteNo="0" devices="tripinfo_veh17" vType="DEFAULT_VEHTYPE" speedFactor="0.93" vaporized=""/>
    <tripinfo id="veh16" depart="40.00" departLane="223632520#0_0" departPos="31.52" departSpeed="0.00" departDelay="0.64" arrival="152.00" arrivalLane="-223632520#0_0" arrivalPos="55.66" arrivalSpeed="13.74" duration="112.00" routeLength="824.50" waitingTime="32.00" waitingCount="1" stopTime="0.00" timeLoss="48.91" rerouteNo="0" devices="tripinfo_veh16" vType="DEFAULT_VEHTYPE" speedFactor="0.99" vaporized=""/>
    <tripinfo id="veh43" depart="106.00" departLane="-649036317#3_0" departPos="14.19" departSpeed="0.00" departDelay="0.22" arrival="154.00" arrivalLane="-223632520#0_0" arrivalPos="55.66" arrivalSpeed="15.26" duration="48.00" routeLength="281.37" waitingTime="15.00" waitingCount="1" stopTime="0.00" timeLoss="28.23" rerouteNo="0" devices="tripinfo_veh43" vType="DEFAULT_VEHTYPE" speedFactor="1.10" vaporized=""/>
    <tripinfo id="veh9" depart="23.00" departLane="-223632517_0" departPos="309.18" departSpeed="0.00" departDelay="0.86" arrival="155.00" arrivalLane="649036317#3_0" arrivalPos="113.32" arrivalSpeed="11.18" duration="132.00" routeLength="1374.36" waitingTime="0.00" waitingCount="0" stopTime="0.00" timeLoss="13.98" rerouteNo="0" devices="tripinfo_veh9" vType="DEFAULT_VEHTYPE" speedFactor="0.86" vaporized=""/>
    <tripinfo id="veh1" depart="3.00" departLane="E4_0" departPos="90.89" departSpeed="0.00" departDelay="0.54" arrival="171.00" arrivalLane="-649064895_0" arrivalPos="150.09" arrivalSpeed="6.84" duration="168.00" routeLength="945.08" waitingTime="69.00" waitingCount="2" stopTime="0.00" timeLoss="92.82" rerouteNo="0" devices="tripinfo_veh1" vType="DEFAULT_VEHTYPE" speedFactor="0.94" vaporized=""/>
    <tripinfo id="veh3" depart="8.00" departLane="-649064895_0" departPos="73.76" departSpeed="0.00" departDelay="0.62" arrival="171.00" arrivalLane="223632526_0" arrivalPos="158.15" arrivalSpeed="14.86" duration="163.00" routeLength="1471.88" waitingTime="46.00" waitingCount="1" stopTime="0.00" timeLoss="62.78" rerouteNo="0" devices="tripinfo_veh3" vType="DEFAULT_VEHTYPE" speedFactor="1.08" vaporized=""/>
    <tripinfo id="veh44" depart="109.00" departLane="258728090#3_0" departPos="111.89" departSpeed="0.00" departDelay="0.76" arrival="181.00" arrivalLane="-223632525#0_0" arrivalPos="198.61" arrivalSpeed="12.09" duration="72.00" routeLength="812.33" waitingTime="0.00" waitingCount="0" stopTime="0.00" timeLoss="6.34" rerouteNo="0" devices="tripinfo_veh44" vType="DEFAULT_VEHTYPE" speedFactor="0.90" vaporized=""/>
    <tripinfo id="veh34" depart="84.00" departLane="-E2_0" departPos="57.83" departSpeed="0.00" departDelay="0.36" arrival="184.00" arrivalLane="649064896#1_0" arrivalPos="201.76" arrivalSpeed="13.02" duration="100.00" routeLength="386.22" waitingTime="60.00" waitingCount="1" stopTime="0.00" timeLoss="71.33" rerouteNo="0" devices="tripinfo_veh34" vType="DEFAULT_VEHTYPE" speedFactor="1.01" vaporized=""/>
    <tripinfo id="veh39" depart="96.00" departLane="258728090#4_0" departPos="61.46" departSpeed="0.00" departDelay="0.06" arrival="193.00" arrivalLane="E4_0" arrivalPos="127.56" arrivalSpeed="9.33" duration="97.00" routeLength="974.52" waitingTime="8.00" waitingCount="1" stopTime="0.00" timeLoss="25.64" rerouteNo="0" devices="tripinfo_veh39" vType="DEFAULT_VEHTYPE" speedFactor="1.02" vaporized=""/>
    <tripinfo id="veh51" depart="126.00" departLane="-649036317#3_0" departPos="80.99" departSpeed="0.00" departDelay="0.54" arrival="199.00" arrivalLane="223632520#1_0" arrivalPos="90.94" arrivalSpeed="13.33" duration="73.00" routeLength="762.52" waitingTime="2.00" waitingCount="1" stopTime="0.00" timeLoss="16.14" rerouteNo="0" devices="tripinfo_veh51" vType="DEFAULT_VEHTYPE" speedFactor="1.00" vaporized=""/>
    <tripinfo id="veh21" depart="52.00" departLane="-258728090#3_0" departPos="185.96" departSpeed="0.00" departDelay="0.34" arrival="213.00" arrivalLane="649040853#1_0" arrivalPos="42.41" arrivalSpeed="20.50" duration="161.00" routeLength="676.24" waitingTime="95.00" waitingCount="2" stopTime="0.00" timeLoss="118.09" rerouteNo="0" devices="tripinfo_veh21" vType="DEFAULT_VEHTYPE" speedFactor="1.16" vaporized=""/>
    <tripinfo id="veh48" depart="120.00" departLane="-E1_0" departPos="162.02" departSpeed="0.00" departDelay="1.92" arrival="216.00" arrivalLane="649064895_0" arrivalPos="149.19" arrivalSpeed="13.67" duration="96.00" routeLength="981.65" waitingTime="3.00" waitingCount="1" stopTime="0.00" timeLoss="26.77" rerouteNo="0" devices="tripinfo_veh48" vType="DEFAULT_VEHTYPE" speedFactor="1.04" vaporized=""/>
    <tripinfo id="veh36" depart="90.00" departLane="-649040853#1_0" departPos="1.25" departSpeed="0.00" departDelay="1.44" arrival="218.00" arrivalLane="-223632525#0_0" arrivalPos="198.61" arrivalSpeed="12.80" duration="128.00" routeLength="713.10" waitingTime="55.00" waitingCount="2" stopTime="0.00" timeLoss="75.54" rerouteNo="0" devices="tripinfo_veh36" vType="DEFAULT_VEHTYPE" speedFactor="0.99" vaporized=""/>
    <tripinfo id="veh80" depart="197.00" departLane="223632525#0_0" departPos="57.56" departSpeed="0.00" departDelay="0.20" arrival="218.00" arrivalLane="-223632520#0_0" arrivalPos="55.66" arrivalSpeed="12.72" duration="21.00" routeLength="218.37" waitingTime="0.00" waitingCount="0" stopTime="0.00" timeLoss="3.78" rerouteNo="0" devices="tripinfo_veh80" vType="DEFAULT_VEHTYPE" speedFactor="0.96" vaporized=""/>
    <tripinfo id="veh24" depart="60.00" departLane="-258728090#4_0" departPos="27.55" departSpeed="0.00" departDelay="0.96" arrival="225.00" arrivalLane="223632525#1_0" arrivalPos="311.00" arrivalSpeed="12.75" duration="165.00" routeLength="1171.51" waitingTime="50.00" waitingCount="3" stopTime="0.00" timeLoss="77.02" rerouteNo="0" devices="tripinfo_veh24" vType="DEFAULT_VEHTYPE" speedFactor="0.97" vaporized=""/>
    <tripinfo id="veh23" depart="57.00" departLane="223632522_0" departPos="42.51" departSpeed="0.00" departDelay="0.42" arrival="227.00" arrivalLane="223632526_0" arrivalPos="158.15" arrivalSpeed="13.90" duration="170.00" routeLength="1249.06" waitingTime="61.00" waitingCount="1" stopTime="0.00" timeLoss="79.29" rerouteNo="0" devices="tripinfo_veh23" vType="DEFAULT_VEHTYPE" speedFactor="1.01" vaporized=""/>
    <tripinfo id="veh42" depart="104.00" departLane="223632517_0" departPos="54.20" departSpeed="0.00" departDelay="0.68" arrival="228.00" arrivalLane="-223632525#2_0" arrivalPos="306.58" arrivalSpeed="15.41" duration="124.00" routeLength="1252.52" waitingTime="30.00" waitingCount="1" stopTime="0.00" timeLoss="46.20" rerouteNo="0" devices="tripinfo_veh42" vType="DEFAULT_VEHTYPE" speedFactor="1.18" vaporized=""/>
    <tripinfo id="veh47" depart="116.00" departLane="-258728090#2_0" departPos="98.73" departSpeed="0.00" departDelay="0.38" arrival="230.00" arrivalLane="-223632520#0_0" arrivalPos="55.66" arrivalSpeed="14.15" duration="114.00" routeLength="1323.09" waitingTime="0.00" waitingCount="0" stopTime="0.00" timeLoss="25.72" rerouteNo="0" devices="tripinfo_veh47" vType="DEFAULT_VEHTYPE" speedFactor="1.09" vaporized=""/>
    <tripinfo id="veh55" depart="136.00" departLane="-144943776_0" departPos="918.32" departSpeed="0.00" departDelay="0.70" arrival="231.00" arrivalLane="258728090#1_0" arrivalPos="443.22" arrivalSpeed="11.39" duration="95.00" routeLength="977.34" waitingTime="0.00" waitingCount="0" stopTime="0.00" timeLoss="12.49" rerouteNo="0" devices="tripinfo_veh55" vType="DEFAULT_VEHTYPE" speedFactor="0.85" vaporized=""/>
    <tripinfo id="veh61" depart="151.00" departLane="223632520#0_0" departPos="10.21" departSpeed="0.00" departDelay="0.94" arrival="232.00" arrivalLane="649064896#1_0" arrivalPos="201.76" arrivalSpeed="11.50" duration="81.00" routeLength="830.47" waitingTime="0.00" waitingCount="0" stopTime="0.00" timeLoss="11.53" rerouteNo="0" devices="tripinfo_veh61" vType="DEFAULT_VEHTYPE" speedFactor="0.90" vaporized=""/>
    <tripinfo id="veh7" depart="18.00" departLane="649064896#1_0" departPos="49.94" departSpeed="0.00" departDelay="0.78" arrival="234.00" arrivalLane="-649064896#1_0" arrivalPos="203.30" arrivalSpeed="6.06" duration="216.00" routeLength="1886.86" waitingTime="36.00" waitingCount="1" stopTime="0.00" timeLoss="58.06" rerouteNo="0" devices="tripinfo_veh7" vType="DEFAULT_VEHTYPE" speedFactor="0.89" vaporized=""/>
    <tripinfo id="veh49" depart="121.00" departLane="-649036317#3_0" departPos="27.32" departSpeed="0.00" departDelay="0.46" arrival="234.00" arrivalLane="223632520#2_0" arrivalPos="265.36" arrivalSpeed="6.20" duration="113.00" routeLength="365.74" waitingTime="62.00" waitingCount="2" stopTime="0.00" timeLoss="86.98" rerouteNo="0" devices="tripinfo_veh49" vType="DEFAULT_VEHTYPE" speedFactor="1.04" vaporized=""/>
    <tripinfo id="veh71" depart="177.00" departLane="223632525#1_0" departPos="26.75" departSpeed="0.00" departDelay="2.34" arrival="238.00" arrivalLane="-258728090#3_0" arrivalPos="272.03" arrivalSpeed="11.91" duration="61.00" routeLength="682.07" waitingTime="0.00" waitingCount="0" stopTime="0.00" timeLoss="6.10" rerouteNo="0" devices="tripinfo_veh71" vType="DEFAULT_VEHTYPE" speedFactor="0.91" vaporized=""/>
    <tripinfo id="veh30" depart="74.00" departLane="223632520#1_0" departPos="49.50" departSpeed="0.00" departDelay="0.20" arrival="240.00" arrivalLane="-223632520#1_0" arrivalPos="93.36" arrivalSpeed="14.91" duration="166.00" routeLength="1204.63" waitingTime="42.00" waitingCount="5" stopTime="0.00" timeLoss="86.68" rerouteNo="0" devices="tripinfo_veh30" vType="DEFAULT_VEHTYPE" speedFactor="1.13" vaporized=""/>
    <tripinfo id="veh86" depart="212.00" departLane="-144943776_0" departPos="789.74" departSpeed="0.00" departDelay="0.44" arrival="241.00" arrivalLane="-223632522_0" arrivalPos="84.46" arrivalSpeed="14.59" duration="29.00" routeLength="266.44" waitingTime="2.00" waitingCount="1" stopTime="0.00" timeLoss="14.07" rerouteNo="0" devices="tripinfo_veh86" vType="DEFAULT_VEHTYPE" speedFactor="1.09" vaporized=""/>
    <tripinfo id="veh46" depart="114.00" departLane="223632520#2_0" departPos="70.07" departSpeed="0.00" departDelay="0.84" arrival="245.00" arrivalLane="649036317#3_0" arrivalPos="113.32" arrivalSpeed="12.43" duration="131.00" routeLength="1098.63" waitingTime="8.00" waitingCount="2" stopTime="0.00" timeLoss="45.04" rerouteNo="0" devices="tripinfo_veh46" vType="DEFAULT_VEHTYPE" speedFactor="0.96" vaporized=""/>
    <tripinfo id="veh54" depart="133.00" departLane="-258728090#4_0" departPos="83.88" departSpeed="0.00" departDelay="0.16" arrival="245.00" arrivalLane="223632517_0" arrivalPos="418.97" arrivalSpeed="11.70" duration="112.00" routeLength="1185.09" waitingTime="0.00" waitingCount="0" stopTime="0.00" timeLoss="9.74" rerouteNo="0" devices="tripinfo_veh54" vType="DEFAULT_VEHTYPE" speedFactor="0.85" vaporized=""/>
    <tripinfo id="veh85" depart="210.00" departLane="223632525#0_0" departPos="101.78" departSpeed="0.00" departDelay="0.90" arrival="246.00" arrivalLane="223632525#1_0" arrivalPos="311.00" arrivalSpeed="13.22" duration="36.00" routeLength="432.49" waitingTime="0.00" waitingCount="0" stopTime="0.00" timeLoss="4.38" rerouteNo="0" devices="tripinfo_veh85" vType="DEFAULT_VEHTYPE" speedFactor="1.01" vaporized=""/>
    <tripinfo id="veh77" depart="190.00" departLane="223632522_0" departPos="6.63" departSpeed="0.00" departDelay="0.58" arrival="251.00" arrivalLane="649040853#2_0" arrivalPos="953.89" arrivalSpeed="21.20" duration="61.00" routeLength="1039.19" waitingTime="0.00" waitingCount="0" stopTime="0.00" timeLoss="8.86" rerouteNo="0" devices="tripinfo_veh77" vType="DEFAULT_VEHTYPE" speedFactor="0.97" vaporized=""/>
    <tripinfo id="veh19" depart="47.00" departLane="649064896#1_0" departPos="176.66" departSpeed="0.00" departDelay="0.26" arrival="254.00" arrivalLane="649040853#2_0" arrivalPos="953.89" arrivalSpeed="19.64" duration="207.00" routeLength="1784.77" waitingTime="70.00" waitingCount="2" stopTime="0.00" timeLoss="96.74" rerouteNo="0" devices="tripinfo_veh19" vType="DEFAULT_VEHTYPE" speedFactor="0.94" vaporized=""/>
    <tripinfo id="veh35" depart="87.00" departLane="223632525#1_0" departPos="49.48" departSpeed="0.00" departDelay="0.90" arrival="255.00" arrivalLane="649040853#2_0" arrivalPos="953.89" arrivalSpeed="22.50" duration="168.00" routeLength="1856.72" waitingTime="54.00" waitingCount="1" stopTime="0.00" timeLoss="76.62" rerouteNo="0" devices="tripinfo_veh35" vType="DEFAULT_VEHTYPE" speedFactor="1.17" vaporized=""/>
    <tripinfo id="veh62" depart="153.00" departLane="258728090#1_0" departPos="284.39" departSpeed="0.00" departDelay="0.48" arrival="258.00" arrivalLane="-E2_0" arrivalPos="75.64" arrivalSpeed="14.72" duration="105.00" routeLength="1205.77" waitingTime="8.00" waitingCount="1" stopTime="0.00" timeLoss="26.59" rerouteNo="0" devices="tripinfo_veh62" vType="DEFAULT_VEHTYPE" speedFactor="1.14" vaporized=""/>
    <tripinfo id="veh58" depart="143.00" departLane="-223632526_0" departPos="93.56" departSpeed="0.00" departDelay="0.32" arrival="261.00" arrivalLane="649064895_0" arrivalPos="149.19" arrivalSpeed="14.57" duration="118.00" routeLength="1448.20" waitingTime="0.00" waitingCount="0" stopTime="0.00" timeLoss="21.12" rerouteNo="0" devices="tripinfo_veh58" vType="DEFAULT_VEHTYPE" speedFactor="1.10" vaporized=""/>
    <tripinfo id="veh63" depart="155.00" departLane="E2_0" departPos="11.48" departSpeed="0.00" departDelay="0.02" arrival="262.00" arrivalLane="649040853#2_0" arrivalPos="953.89" arrivalSpeed="22.67" duration="107.00" routeLength="1167.32" waitingTime="36.00" waitingCount="1" stopTime="0.00" timeLoss="51.35" rerouteNo="0" devices="tripinfo_veh63" vType="DEFAULT_VEHTYPE" speedFactor="1.02" vaporized=""/>
    <tripinfo id="veh50" depart="125.00" departLane="-E4_0" departPos="84.40" departSpeed="0.00" departDelay="2.00" arrival="267.00" arrivalLane="649040853#2_0" arrivalPos="953.89" arrivalSpeed="22.92" duration="142.00" routeLength="1384.62" waitingTime="63.00" waitingCount="1" stopTime="0.00" timeLoss="75.70" rerouteNo="0" devices="tripinfo_veh50" vType="DEFAULT_VEHTYPE" speedFactor="1.09" vaporized=""/>
    <tripinfo id="veh22" depart="55.00" departLane="223632520#0_0" departPos="2.57" departSpeed="0.00" departDelay="0.88" arrival="272.00" arrivalLane="258728090#1_0" arrivalPos="443.22" arrivalSpeed="13.70" duration="217.00" routeLength="1409.65" waitingTime="83.00" waitingCount="3" stopTime="0.00" timeLoss="116.58" rerouteNo="0" devices="tripinfo_veh22" vType="DEFAULT_VEHTYPE" speedFactor="1.02" vaporized=""/>
    <tripinfo id="veh56" depart="138.00" departLane="258728090#1_0" departPos="136.42" departSpeed="0.00" departDelay="0.24" arrival="272.00" arrivalLane="-649064895_0" arrivalPos="150.09" arrivalSpeed="9.33" duration="134.00" routeLength="1505.45" waitingTime="13.00" waitingCount="1" stopTime="0.00" timeLoss="39.41" rerouteNo="0" devices="tripinfo_veh56" vType="DEFAULT_VEHTYPE" speedFactor="1.17" vaporized=""/>
    <tripinfo id="veh96" depart="237.00" departLane="-649036317#3_0" departPos="70.77" departSpeed="0.00" departDelay="0.84" arrival="272.00" arrivalLane="E1_0" arrivalPos="284.09" arrivalSpeed="9.30" duration="35.00" routeLength="341.74" waitingTime="0.00" waitingCount="0" stopTime="0.00" timeLoss="10.25" rerouteNo="0" devices="tripinfo_veh96" vType="DEFAULT_VEHTYPE" speedFactor="1.01" vaporized=""/>
    <tripinfo id="veh57" depart="141.00" departLane="E1_0" departPos="139.93" departSpeed="0.00" departDelay="0.78" arrival="274.00" arrivalLane="649040853#2_0" arrivalPos="953.89" arrivalSpeed="22.37" duration="133.00" routeLength="1737.34" waitingTime="19.00" waitingCount="1" stopTime="0.00" timeLoss="35.95" rerouteNo="0" devices="tripinfo_veh57" vType="DEFAULT_VEHTYPE" speedFactor="1.02" vaporized=""/>
    <tripinfo id="veh45" depart="111.00" departLane="223632520#2_0" departPos="255.95" departSpeed="0.00" departDelay="0.30" arrival="280.00" arrivalLane="671642282_0" arrivalPos="265.76" arrivalSpeed="13.11" duration="169.00" routeLength="1078.50" waitingTime="73.00" waitingCount="2" stopTime="0.00" timeLoss="91.87" rerouteNo="0" devices="tripinfo_veh45" vType="DEFAULT_VEHTYPE" speedFactor="1.03" vaporized=""/>
    <tripinfo id="veh59" depart="146.00" departLane="-223632525#2_0" departPos="51.63" departSpeed="0.00" departDelay="0.86" arrival="283.00" arrivalLane="E4_0" arrivalPos="127.56" arrivalSpeed="7.12" duration="137.00" routeLength="1027.46" waitingTime="36.00" waitingCount="2" stopTime="0.00" timeLoss="62.59" rerouteNo="0" devices="tripinfo_veh59" vType="DEFAULT_VEHTYPE" speedFactor="1.00" vaporized=""/>
    <tripinfo id="veh98" depart="242.00" departLane="-144943776_0" departPos="406.67" departSpeed="0.00" departDelay="0.92" arrival="283.00" arrivalLane="-223632522_0" arrivalPos="84.46" arrivalSpeed="12.99" duration="41.00" routeLength="649.51" waitingTime="0.00" waitingCount="0" stopTime="0.00" timeLoss="8.47" rerouteNo="0" devices="tripinfo_veh98" vType="DEFAULT_VEHTYPE" speedFactor="1.02" vaporized=""/>
    <tripinfo id="veh65" depart="160.00" departLane="-144943776_0" departPos="266.75" departSpeed="0.00" departDelay="0.10" arrival="289.00" arrivalLane="-223632520#2_0" arrivalPos="266.10" arrivalSpeed="13.88" duration="129.00" routeLength="1099.93" waitingTime="50.00" waitingCount="2" stopTime="0.00" timeLoss="74.28" rerouteNo="0" devices="tripinfo_veh65" vType="DEFAULT_VEHTYPE" speedFactor="1.08" vaporized=""/>
    <tripinfo id="veh66" depart="163.00" departLane="-223632526_0" departPos="88.19" departSpeed="0.00" departDelay="0.64" arrival="291.00" arrivalLane="-258728090#3_0" arrivalPos="272.03" arrivalSpeed="14.47" duration="128.00" routeLength="1726.63" waitingTime="0.00" waitingCount="0" stopTime="0.00" timeLoss="15.43" rerouteNo="0" devices="tripinfo_veh66" vType="DEFAULT_VEHTYPE" speedFactor="1.12" vaporized=""/>
    <tripinfo id="veh52" depart="128.00" departLane="-E2_0" departPos="45.10" departSpeed="0.00" departDelay="0.08" arrival="292.00" arrivalLane="223632526_0" arrivalPos="158.15" arrivalSpeed="12.13" duration="164.00" routeLength="1577.80" waitingTime="18.00" waitingCount="1" stopTime="0.00" timeLoss="35.21" rerouteNo="0" devices="tripinfo_veh52" vType="DEFAULT_VEHTYPE" speedFactor="0.90" vaporized=""/>
    <tripinfo id="veh75" depart="185.00" departLane="223632520#0_0" departPos="10.06" departSpeed="0.00" departDelay="0.50" arrival="300.00" arrivalLane="-E4_0" arrivalPos="126.33" arrivalSpeed="5.10" duration="115.00" routeLength="618.13" waitingTime="53.00" waitingCount="1" stopTime="0.00" timeLoss="70.02" rerouteNo="0" devices="tripinfo_veh75" vType="DEFAULT_VEHTYPE" speedFactor="1.02" vaporized=""/>
    <tripinfo id="veh109" depart="271.00" departLane="223632520#0_0" departPos="15.65" departSpeed="0.00" departDelay="2.86" arrival="302.00" arrivalLane="649036317#3_0" arrivalPos="113.32" arrivalSpeed="12.71" duration="31.00" routeLength="284.01" waitingTime="0.00" waitingCount="0" stopTime="0.00" timeLoss="7.90" rerouteNo="0" devices="tripinfo_veh109" vType="DEFAULT_VEHTYPE" speedFactor="0.96" vaporized=""/>
    <tripinfo id="veh68" depart="168.00" departLane="-649040853#1_0" departPos="2.81" departSpeed="0.00" departDelay="0.72" arrival="303.00" arrivalLane="-223632520#0_0" arrivalPos="55.66" arrivalSpeed="13.56" duration="135.00" routeLength="583.52" waitingTime="73.00" waitingCount="2" stopTime="0.00" timeLoss="93.01" rerouteNo="0" devices="tripinfo_veh68" vType="DEFAULT_VEHTYPE" speedFactor="0.99" vaporized=""/>
    <tripinfo id="veh73" depart="180.00" departLane="-649036317#3_0" departPos="64.20" departSpeed="0.00" departDelay="0.42" arrival="305.00" arrivalLane="-E4_0" arrivalPos="126.33" arrivalSpeed="9.26" duration="125.00" routeLength="598.80" waitingTime="53.00" waitingCount="3" stopTime="0.00" timeLoss="76.53" rerouteNo="0" devices="tripinfo_veh73" vType="DEFAULT_VEHTYPE" speedFactor="0.91" vaporized=""/>
    <tripinfo id="veh88" depart="217.00" departLane="E4_0" departPos="53.21" departSpeed="0.00" departDelay="0.52" arrival="309.00" arrivalLane="-258728090#4_0" arrivalPos="89.71" arrivalSpeed="13.38" duration="92.00" routeLength="1017.12" waitingTime="0.00" waitingCount="0" stopTime="0.00" timeLoss="15.08" rerouteNo="0" devices="tripinfo_veh88" vType="DEFAULT_VEHTYPE" speedFactor="1.00" vaporized=""/>
    <tripinfo id="veh70" depart="173.00" departLane="223632525#0_0" departPos="196.94" departSpeed="0.00" departDelay="0.80" arrival="314.00" arrivalLane="-223632522_0" arrivalPos="84.46" arrivalSpeed="11.58" duration="141.00" routeLength="623.59" waitingTime="70.00" waitingCount="2" stopTime="0.00" timeLoss="90.06" rerouteNo="0" devices="tripinfo_veh70" vType="DEFAULT_VEHTYPE" speedFactor="0.88" vaporized=""/>
    <tripinfo id="veh113" depart="278.00" departLane="258728090#4_0" departPos="79.12" departSpeed="0.00" departDelay="0.02" arrival="314.00" arrivalLane="-223632520#0_0" arrivalPos="55.66" arrivalSpeed="13.97" duration="36.00" routeLength="406.92" waitingTime="0.00" waitingCount="0" stopTime="0.00" timeLoss="6.28" rerouteNo="0" devices="tripinfo_veh113" vType="DEFAULT_VEHTYPE" speedFactor="1.07" vaporized=""/>
    <tripinfo id="veh64" depart="158.00" departLane="-223632526_0" departPos="4.49" departSpeed="0.00" departDelay="0.56" arrival="315.00" arrivalLane="-223632520#0_0" arrivalPos="55.66" arrivalSpeed="12.23" duration="157.00" routeLength="1679.58" waitingTime="4.00" waitingCount="1" stopTime="0.00" timeLoss="31.10" rerouteNo="0" devices="tripinfo_veh64" vType="DEFAULT_VEHTYPE" speedFactor="0.97" vaporized=""/>