<?xml version="1.0" encoding="UTF-8"?>

<!-- generated on 2025-05-23 12:11:07 by Eclipse SUMO sumo Version 1.22.0
<sumoConfiguration xmlns:xsi="http://www.w3.org/2001/XMLSchema-instance" xsi:noNamespaceSchemaLocation="http://sumo.dlr.de/xsd/sumoConfiguration.xsd">

    <input>
        <net-file value="E:/licenta/oras-mic/2025-05-08-13-35-40/osm.net.xml"/>
        <route-files value="E:/licenta/oras-mic/2025-05-08-13-35-40/routes.rou.xml"/>
        <additional-files value="E:/licenta/oras-mic/2025-05-08-13-35-40/osm.poly.xml"/>
    </input>

    <output>
        <summary-output value="E:/licenta/oras-mic/2025-05-08-13-35-40/summary.xml"/>
        <tripinfo-output value="E:/licenta/oras-mic/2025-05-08-13-35-40/tripinfo.xml"/>
    </output>

    <processing>
        <ignore-route-errors value="true"/>
        <tls.actuated.jam-threshold value="30"/>
    </processing>

    <routing>
        <device.rerouting.adaptation-steps value="18"/>
        <device.rerouting.adaptation-interval value="10"/>
    </routing>

    <report>
        <verbose value="true"/>
        <duration-log.statistics value="true"/>
        <no-step-log value="true"/>
    </report>

    <traci_server>
        <remote-port value="62506"/>
    </traci_server>

</sumoConfiguration>
-->

<tripinfos xmlns:xsi="http://www.w3.org/2001/XMLSchema-instance" xsi:noNamespaceSchemaLocation="http://sumo.dlr.de/xsd/tripinfo_file.xsd">
    <tripinfo id="veh10" depart="24.00" departLane="223632525#1_0" departPos="169.58" departSpeed="0.00" departDelay="0.80" arrival="79.00" arrivalLane="649064896#1_0" arrivalPos="201.76" arrivalSpeed="12.66" duration="55.00" routeLength="606.42" waitingTime="0.00" waitingCount="0" stopTime="0.00" timeLoss="6.75" rerouteNo="0" devices="tripinfo_veh10" vType="DEFAULT_VEHTYPE" speedFactor="0.94" vaporized=""/>
    <tripinfo id="veh15" depart="35.00" departLane="223632525#0_0" departPos="89.73" departSpeed="0.00" departDelay="0.20" arrival="79.00" arrivalLane="E1_0" arrivalPos="284.09" arrivalSpeed="14.71" duration="44.00" routeLength="512.45" waitingTime="0.00" waitingCount="0" stopTime="0.00" timeLoss="9.27" rerouteNo="0" devices="tripinfo_veh15" vType="DEFAULT_VEHTYPE" speedFactor="1.12" vaporized=""/>
    <tripinfo id="veh19" depart="45.00" departLane="649040853#1_0" departPos="37.13" departSpeed="0.00" departDelay="0.92" arrival="98.00" arrivalLane="649040853#2_0" arrivalPos="953.89" arrivalSpeed="20.02" duration="53.00" routeLength="973.14" waitingTime="0.00" waitingCount="0" stopTime="0.00" timeLoss="6.11" rerouteNo="0" devices="tripinfo_veh19" vType="DEFAULT_VEHTYPE" speedFactor="0.94" vaporized=""/>
    <tripinfo id="veh38" depart="89.00" departLane="-223632520#2_0" departPos="254.55" departSpeed="0.00" departDelay="0.84" arrival="108.00" arrivalLane="-223632520#0_0" arrivalPos="55.66" arrivalSpeed="15.53" duration="19.00" routeLength="200.22" waitingTime="0.00" waitingCount="0" stopTime="0.00" timeLoss="6.14" rerouteNo="0" devices="tripinfo_veh38" vType="DEFAULT_VEHTYPE" speedFactor="1.15" vaporized=""/>
    <tripinfo id="veh41" depart="96.00" departLane="-223632520#2_0" departPos="88.16" departSpeed="0.00" departDelay="0.88" arrival="152.00" arrivalLane="-258728090#4_0" arrivalPos="89.71" arrivalSpeed="12.91" duration="56.00" routeLength="584.64" waitingTime="0.00" waitingCount="0" stopTime="0.00" timeLoss="11.71" rerouteNo="0" devices="tripinfo_veh41" vType="DEFAULT_VEHTYPE" speedFactor="0.99" vaporized=""/>
    <tripinfo id="veh24" depart="56.00" departLane="649064896#1_0" departPos="103.50" departSpeed="0.00" departDelay="0.32" arrival="159.00" arrivalLane="223632526_0" arrivalPos="158.15" arrivalSpeed="13.26" duration="103.00" routeLength="1277.11" waitingTime="0.00" waitingCount="0" stopTime="0.00" timeLoss="10.69" rerouteNo="0" devices="tripinfo_veh24" vType="DEFAULT_VEHTYPE" speedFactor="1.01" vaporized=""/>
    <tripinfo id="veh37" depart="86.00" departLane="-671642282_0" departPos="42.93" departSpeed="0.00" departDelay="0.16" arrival="163.00" arrivalLane="258728090#1_0" arrivalPos="443.22" arrivalSpeed="11.71" duration="77.00" routeLength="961.34" waitingTime="0.00" waitingCount="0" stopTime="0.00" timeLoss="18.05" rerouteNo="0" devices="tripinfo_veh37" vType="DEFAULT_VEHTYPE" speedFactor="1.18" vaporized=""/>
    <tripinfo id="veh40" depart="93.00" departLane="-258728090#3_0" departPos="186.36" departSpeed="0.00" departDelay="0.20" arrival="180.00" arrivalLane="223632526_0" arrivalPos="158.15" arrivalSpeed="15.42" duration="87.00" routeLength="1264.09" waitingTime="0.00" waitingCount="0" stopTime="0.00" timeLoss="8.61" rerouteNo="0" devices="tripinfo_veh40" vType="DEFAULT_VEHTYPE" speedFactor="1.17" vaporized=""/>
    <tripinfo id="veh61" depart="142.00" departLane="223632520#0_0" departPos="32.29" departSpeed="0.00" departDelay="0.48" arrival="181.00" arrivalLane="E1_0" arrivalPos="284.09" arrivalSpeed="8.05" duration="39.00" routeLength="433.96" waitingTime="0.00" waitingCount="0" stopTime="0.00" timeLoss="9.95" rerouteNo="0" devices="tripinfo_veh61" vType="DEFAULT_VEHTYPE" speedFactor="1.10" vaporized=""/>
    <tripinfo id="veh44" depart="103.00" departLane="223632525#1_0" departPos="127.93" departSpeed="0.00" departDelay="0.92" arrival="182.00" arrivalLane="258728090#4_0" arrivalPos="89.71" arrivalSpeed="15.99" duration="79.00" routeLength="1034.91" waitingTime="0.00" waitingCount="0" stopTime="0.00" timeLoss="13.78" rerouteNo="0" devices="tripinfo_veh44" vType="DEFAULT_VEHTYPE" speedFactor="1.18" vaporized=""/>
    <tripinfo id="veh50" depart="116.00" departLane="649064895_0" departPos="85.28" departSpeed="0.00" departDelay="0.00" arrival="201.00" arrivalLane="-E4_0" arrivalPos="126.33" arrivalSpeed="14.39" duration="85.00" routeLength="971.46" waitingTime="0.00" waitingCount="0" stopTime="0.00" timeLoss="17.96" rerouteNo="0" devices="tripinfo_veh50" vType="DEFAULT_VEHTYPE" speedFactor="1.09" vaporized=""/>
    <tripinfo id="veh36" depart="84.00" departLane="223632525#1_0" departPos="237.76" departSpeed="0.00" departDelay="0.48" arrival="202.00" arrivalLane="E1_0" arrivalPos="284.09" arrivalSpeed="12.79" duration="118.00" routeLength="1146.16" waitingTime="11.00" waitingCount="1" stopTime="0.00" timeLoss="26.33" rerouteNo="0" devices="tripinfo_veh36" vType="DEFAULT_VEHTYPE" speedFactor="0.93" vaporized=""/>
    <tripinfo id="veh54" depart="126.00" departLane="223632525#1_0" departPos="207.79" departSpeed="0.00" departDelay="0.72" arrival="202.00" arrivalLane="-258728090#2_0" arrivalPos="442.46" arrivalSpeed="12.88" duration="76.00" routeLength="959.01" waitingTime="0.00" waitingCount="0" stopTime="0.00" timeLoss="6.24" rerouteNo="0" devices="tripinfo_veh54" vType="DEFAULT_VEHTYPE" speedFactor="1.00" vaporized=""/>
    <tripinfo id="veh51" depart="119.00" departLane="E2_0" departPos="18.26" departSpeed="0.00" departDelay="0.68" arrival="210.00" arrivalLane="223632520#1_0" arrivalPos="90.94" arrivalSpeed="13.82" duration="91.00" routeLength="1069.26" waitingTime="0.00" waitingCount="0" stopTime="0.00" timeLoss="13.55" rerouteNo="0" devices="tripinfo_veh51" vType="DEFAULT_VEHTYPE" speedFactor="1.04" vaporized=""/>
    <tripinfo id="veh49" depart="114.00" departLane="-223632526_0" departPos="27.09" departSpeed="0.00" departDelay="0.32" arrival="235.00" arrivalLane="258728090#3_0" arrivalPos="272.00" arrivalSpeed="12.84" duration="121.00" routeLength="1427.89" waitingTime="0.00" waitingCount="0" stopTime="0.00" timeLoss="13.42" rerouteNo="0" devices="tripinfo_veh49" vType="DEFAULT_VEHTYPE" speedFactor="0.96" vaporized=""/>
    <tripinfo id="veh73" depart="170.00" departLane="-258728090#4_0" departPos="30.41" departSpeed="0.00" departDelay="0.64" arrival="254.00" arrivalLane="649036317#3_0" arrivalPos="113.32" arrivalSpeed="11.20" duration="84.00" routeLength="847.27" waitingTime="0.00" waitingCount="0" stopTime="0.00" timeLoss="11.63" rerouteNo="0" devices="tripinfo_veh73" vType="DEFAULT_VEHTYPE" speedFactor="0.88" vaporized=""/>
    <tripinfo id="veh55" depart="128.00" departLane="E1_0" departPos="203.28" departSpeed="0.00" departDelay="0.40" arrival="277.00" arrivalLane="223632526_0" arrivalPos="158.15" arrivalSpeed="11.37" duration="149.00" routeLength="1655.03" waitingTime="0.00" waitingCount="0" stopTime="0.00" timeLoss="14.43" rerouteNo="0" devices="tripinfo_veh55" vType="DEFAULT_VEHTYPE" speedFactor="0.90" vaporized=""/>
    <tripinfo id="veh84" depart="195.00" departLane="E1_0" departPos="60.33" departSpeed="0.00" departDelay="0.12" arrival="278.00" arrivalLane="E2_0" arrivalPos="75.64" arrivalSpeed="13.26" duration="83.00" routeLength="713.78" waitingTime="18.00" waitingCount="1" stopTime="0.00" timeLoss="29.11" rerouteNo="0" devices="tripinfo_veh84" vType="DEFAULT_VEHTYPE" speedFactor="0.98" vaporized=""/>
    <tripinfo id="veh87" depart="202.00" departLane="223632520#0_0" departPos="34.24" departSpeed="0.00" departDelay="0.16" arrival="299.00" arrivalLane="258728090#3_0" arrivalPos="272.00" arrivalSpeed="12.77" duration="97.00" routeLength="1087.73" waitingTime="0.00" waitingCount="0" stopTime="0.00" timeLoss="15.43" rerouteNo="0" devices="tripinfo_veh87" vType="DEFAULT_VEHTYPE" speedFactor="1.01" vaporized=""/>
    <tripinfo id="veh100" depart="232.00" departLane="-E4_0" departPos="122.73" departSpeed="0.00" departDelay="0.00" arrival="302.00" arrivalLane="E1_0" arrivalPos="284.09" arrivalSpeed="13.46" duration="70.00" routeLength="824.01" waitingTime="0.00" waitingCount="0" stopTime="0.00" timeLoss="9.83" rerouteNo="0" devices="tripinfo_veh100" vType="DEFAULT_VEHTYPE" speedFactor="1.02" vaporized=""/>
    <tripinfo id="veh102" depart="240.00" departLane="E2_0" departPos="28.11" departSpeed="0.00" departDelay="3.36" arrival="309.00" arrivalLane="-223632525#0_0" arrivalPos="198.61" arrivalSpeed="10.86" duration="69.00" routeLength="646.31" waitingTime="0.00" waitingCount="0" stopTime="0.00" timeLoss="10.01" rerouteNo="0" devices="tripinfo_veh102" vType="DEFAULT_VEHTYPE" speedFactor="0.83" vaporized=""/>
    <tripinfo id="veh122" depart="284.00" departLane="223632525#0_0" departPos="63.68" departSpeed="0.00" departDelay="0.96" arrival="322.00" arrivalLane="649036317#3_0" arrivalPos="113.32" arrivalSpeed="12.86" duration="38.00" routeLength="371.91" waitingTime="0.00" waitingCount="0" stopTime="0.00" timeLoss="6.55" rerouteNo="0" devices="tripinfo_veh122" vType="DEFAULT_VEHTYPE" speedFactor="0.93" vaporized=""/>
    <tripinfo id="veh98" depart="228.00" departLane="-258728090#3_0" departPos="251.60" departSpeed="0.00" departDelay="0.64" arrival="324.00" arrivalLane="223632526_0" arrivalPos="158.15" arrivalSpeed="13.48" duration="96.00" routeLength="1198.85" waitingTime="0.00" waitingCount="0" stopTime="0.00" timeLoss="9.44" rerouteNo="0" devices="tripinfo_veh98" vType="DEFAULT_VEHTYPE" speedFactor="1.01" vaporized=""/>
    <tripinfo id="veh129" depart="300.00" departLane="223632520#0_0" departPos="21.95" departSpeed="0.00" departDelay="0.72" arrival="332.00" arrivalLane="649036317#3_0" arrivalPos="113.32" arrivalSpeed="12.70" duration="32.00" routeLength="277.71" waitingTime="0.00" waitingCount="0" stopTime="0.00" timeLoss="11.54" rerouteNo="0" devices="tripinfo_veh129" vType="DEFAULT_VEHTYPE" speedFactor="1.00" vaporized=""/>
    <tripinfo id="veh126" depart="293.00" departLane="E4_0" departPos="4.42" departSpeed="0.00" departDelay="0.68" arrival="353.00" arrivalLane="-223632525#0_0" arrivalPos="198.61" arrivalSpeed="14.45" duration="60.00" routeLength="772.71" waitingTime="0.00" waitingCount="0" stopTime="0.00" timeLoss="8.41" rerouteNo="0" devices="tripinfo_veh126" vType="DEFAULT_VEHTYPE" speedFactor="1.10" vaporized=""/>
    <tripinfo id="veh139" depart="323.00" departLane="223632525#0_0" departPos="58.24" departSpeed="0.00" departDelay="0.52" arrival="353.00" arrivalLane="223632520#1_0" arrivalPos="90.94" arrivalSpeed="11.30" duration="30.00" routeLength="249.54" waitingTime="0.00" waitingCount="0" stopTime="0.00" timeLoss="6.38" rerouteNo="0" devices="tripinfo_veh139" vType="DEFAULT_VEHTYPE" speedFactor="0.82" vaporized=""/>
    <tripinfo id="veh106" depart="246.00" departLane="-223632526_0" departPos="106.98" departSpeed="0.00" departDelay="0.08" arrival="368.00" arrivalLane="-E4_0" arrivalPos="126.33" arrivalSpeed="13.54" duration="122.00" routeLength="1483.69" waitingTime="0.00" waitingCount="0" stopTime="0.00" timeLoss="14.65" rerouteNo="0" devices="tripinfo_veh106" vType="DEFAULT_VEHTYPE" speedFactor="1.01" vaporized=""/>
    <tripinfo id="veh131" depart="304.00" departLane="-223632526_0" departPos="147.68" departSpeed="0.00" departDelay="0.08" arrival="383.00" arrivalLane="258728090#1_0" arrivalPos="443.22" arrivalSpeed="14.22" duration="79.00" routeLength="1019.71" waitingTime="0.00" waitingCount="0" stopTime="0.00" timeLoss="9.50" rerouteNo="0" devices="tripinfo_veh131" vType="DEFAULT_VEHTYPE" speedFactor="1.07" vaporized=""/>
    <tripinfo id="veh171" depart="397.00" departLane="671642282_0" departPos="227.52" departSpeed="0.00" departDelay="0.28" arrival="414.00" arrivalLane="223632526_0" arrivalPos="158.15" arrivalSpeed="14.76" duration="17.00" routeLength="197.00" waitingTime="0.00" waitingCount="0" stopTime="0.00" timeLoss="4.05" rerouteNo="0" devices="tripinfo_veh171" vType="DEFAULT_VEHTYPE" speedFactor="1.12" vaporized=""/>
    <tripinfo id="veh153" depart="355.00" departLane="E4_0" departPos="10.00" departSpeed="0.00" departDelay="0.04" arrival="420.00" arrivalLane="-223632525#0_0" arrivalPos="198.61" arrivalSpeed="13.12" duration="65.00" routeLength="767.13" waitingTime="0.00" waitingCount="0" stopTime="0.00" timeLoss="9.18" rerouteNo="0" devices="tripinfo_veh153" vType="DEFAULT_VEHTYPE" speedFactor="1.00" vaporized=""/>
    <tripinfo id="veh136" depart="316.00" departLane="E4_0" departPos="69.48" departSpeed="0.00" departDelay="0.48" arrival="422.00" arrivalLane="671642282_0" arrivalPos="265.76" arrivalSpeed="13.64" duration="106.00" routeLength="1367.29" waitingTime="0.00" waitingCount="0" stopTime="0.00" timeLoss="11.45" rerouteNo="0" devices="tripinfo_veh136" vType="DEFAULT_VEHTYPE" speedFactor="1.06" vaporized=""/>
    <tripinfo id="veh148" depart="344.00" departLane="E4_0" departPos="114.33" departSpeed="0.00" departDelay="0.64" arrival="435.00" arrivalLane="-E4_0" arrivalPos="126.33" arrivalSpeed="14.19" duration="91.00" routeLength="1098.58" waitingTime="0.00" waitingCount="0" stopTime="0.00" timeLoss="12.60" rerouteNo="0" devices="tripinfo_veh148" vType="DEFAULT_VEHTYPE" speedFactor="1.04" vaporized=""/>
    <tripinfo id="veh164" depart="381.00" departLane="E4_0" departPos="34.99" departSpeed="0.00" departDelay="0.52" arrival="445.00" arrivalLane="-223632525#0_0" arrivalPos="198.61" arrivalSpeed="12.31" duration="64.00" routeLength="742.14" waitingTime="0.00" waitingCount="0" stopTime="0.00" timeLoss="7.94" rerouteNo="0" devices="tripinfo_veh164" vType="DEFAULT_VEHTYPE" speedFactor="0.97" vaporized=""/>
    <tripinfo id="veh175" depart="406.00" departLane="E4_0" departPos="72.73" departSpeed="0.00" departDelay="0.00" arrival="469.00" arrivalLane="-223632525#0_0" arrivalPos="198.61" arrivalSpeed="12.57" duration="63.00" routeLength="704.40" waitingTime="0.00" waitingCount="0" stopTime="0.00" timeLoss="6.49" rerouteNo="0" devices="tripinfo_veh175" vType="DEFAULT_VEHTYPE" speedFactor="0.91" vaporized=""/>
    <tripinfo id="veh159" depart="369.00" departLane="-258728090#3_0" departPos="11.73" departSpeed="0.00" departDelay="0.12" arrival="472.00" arrivalLane="223632526_0" arrivalPos="158.15" arrivalSpeed="14.78" duration="103.00" routeLength="1438.72" waitingTime="0.00" waitingCount="0" stopTime="0.00" timeLoss="10.48" rerouteNo="0" devices="tripinfo_veh159" vType="DEFAULT_VEHTYPE" speedFactor="1.13" vaporized=""/>
    <tripinfo id="veh168" depart="390.00" departLane="223632520#0_0" departPos="6.66" departSpeed="0.00" departDelay="0.24" arrival="477.00" arrivalLane="-223632520#0_0" arrivalPos="55.66" arrivalSpeed="14.24" duration="87.00" routeLength="849.36" waitingTime="9.00" waitingCount="1" stopTime="0.00" timeLoss="26.62" rerouteNo="0" devices="tripinfo_veh168" vType="DEFAULT_VEHTYPE" speedFactor="1.07" vaporized=""/>
    <tripinfo id="veh21" depart="49.00" departLane="223632520#2_0" departPos="181.40" departSpeed="0.00" departDelay="0.28" arrival="493.00" arrivalLane="258728090#1_0" arrivalPos="443.22" arrivalSpeed="11.12" duration="444.00" routeLength="1014.82" waitingTime="301.00" waitingCount="1" stopTime="0.00" timeLoss="319.60" rerouteNo="0" devices="tripinfo_veh21" vType="DEFAULT_VEHTYPE" speedFactor="1.16" vaporized=""/>
    <tripinfo id="veh34" depart="79.00" departLane="223632522_0" departPos="19.62" departSpeed="0.00" departDelay="0.12" arrival="525.00" arrivalLane="-223632525#0_0" arrivalPos="198.61" arrivalSpeed="13.03" duration="446.00" routeLength="751.62" waitingTime="301.00" waitingCount="1" stopTime="0.00" timeLoss="310.40" rerouteNo="0" devices="tripinfo_veh34" vType="DEFAULT_VEHTYPE" speedFactor="0.95" vaporized=""/>
    <tripinfo id="veh70" depart="163.00" departLane="649064895_0" departPos="9.99" departSpeed="0.00" departDelay="0.60" arrival="538.00" arrivalLane="649040853#2_0" arrivalPos="953.89" arrivalSpeed="22.11" duration="375.00" routeLength="1302.99" waitingTime="301.00" waitingCount="1" stopTime="0.00" timeLoss="308.84" rerouteNo="0" devices="tripinfo_veh70" vType="DEFAULT_VEHTYPE" speedFactor="1.02" vaporized=""/>
    <tripinfo id="veh221" depart="513.00" departLane="-223632525#2_0" departPos="116.52" departSpeed="0.00" departDelay="0.28" arrival="546.00" arrivalLane="-223632525#0_0" arrivalPos="198.61" arrivalSpeed="14.14" duration="33.00" routeLength="413.85" waitingTime="0.00" waitingCount="0" stopTime="0.00" timeLoss="4.50" rerouteNo="0" devices="tripinfo_veh221" vType="DEFAULT_VEHTYPE" speedFactor="1.06" vaporized=""/>
    <tripinfo id="veh205" depart="478.00" departLane="223632520#1_0" departPos="34.28" departSpeed="0.00" departDelay="2.40" arrival="548.00" arrivalLane="-223632520#0_0" arrivalPos="55.66" arrivalSpeed="13.98" duration="70.00" routeLength="740.83" waitingTime="3.00" waitingCount="1" stopTime="0.00" timeLoss="16.57" rerouteNo="0" devices="tripinfo_veh205" vType="DEFAULT_VEHTYPE" speedFactor="1.08" vaporized=""/>
    <tripinfo id="veh227" depart="527.00" departLane="-223632520#1_0" departPos="12.06" departSpeed="0.00" departDelay="0.36" arrival="550.00" arrivalLane="-223632520#0_0" arrivalPos="55.66" arrivalSpeed="13.81" duration="23.00" routeLength="161.35" waitingTime="0.00" waitingCount="0" stopTime="0.00" timeLoss="11.40" rerouteNo="0" devices="tripinfo_veh227" vType="DEFAULT_VEHTYPE" speedFactor="1.07" vaporized=""/>
    <tripinfo id="veh216" depart="503.00" departLane="-223632520#1_0" departPos="51.03" departSpeed="0.00" departDelay="1.88" arrival="555.00" arrivalLane="-E4_0" arrivalPos="126.33" arrivalSpeed="13.64" duration="52.00" routeLength="631.37" waitingTime="0.00" waitingCount="0" stopTime="0.00" timeLoss="8.94" rerouteNo="0" devices="tripinfo_veh216" vType="DEFAULT_VEHTYPE" speedFactor="1.07" vaporized=""/>
    <tripinfo id="veh239" depart="555.00" departLane="-223632520#1_0" departPos="6.41" departSpeed="0.00" departDelay="0.52" arrival="572.00" arrivalLane="-223632520#0_0" arrivalPos="55.66" arrivalSpeed="14.96" duration="17.00" routeLength="167.00" waitingTime="0.00" waitingCount="0" stopTime="0.00" timeLoss="5.65" rerouteNo="0" devices="tripinfo_veh239" vType="DEFAULT_VEHTYPE" speedFactor="1.09" vaporized=""/>
    <tripinfo id="veh219" depart="509.00" departLane="223632525#0_0" departPos="27.94" departSpeed="0.00" departDelay="0.92" arrival="598.00" arrivalLane="649064896#1_0" arrivalPos="201.76" arrivalSpeed="13.02" duration="89.00" routeLength="971.33" waitingTime="5.00" waitingCount="1" stopTime="0.00" timeLoss="20.10" rerouteNo="0" devices="tripinfo_veh219" vType="DEFAULT_VEHTYPE" speedFactor="1.03" vaporized=""/>
    <tripinfo id="veh230" depart="534.00" departLane="-223632517_0" departPos="100.97" departSpeed="0.00" departDelay="0.40" arrival="622.00" arrivalLane="223632526_0" arrivalPos="158.15" arrivalSpeed="13.21" duration="88.00" routeLength="1034.30" waitingTime="0.00" waitingCount="0" stopTime="0.00" timeLoss="9.54" rerouteNo="0" devices="tripinfo_veh230" vType="DEFAULT_VEHTYPE" speedFactor="0.97" vaporized=""/>
    <tripinfo id="veh137" depart="318.00" departLane="258728090#3_0" departPos="129.54" departSpeed="0.00" departDelay="0.16" arrival="650.00" arrivalLane="E2_0" arrivalPos="75.64" arrivalSpeed="6.79" duration="332.00" routeLength="517.68" waitingTime="287.00" waitingCount="1" stopTime="0.00" timeLoss="298.75" rerouteNo="0" devices="tripinfo_veh137" vType="DEFAULT_VEHTYPE" speedFactor="1.15" vaporized=""/>
    <tripinfo id="veh6" depart="14.00" departLane="223632525#0_0" departPos="8.66" departSpeed="0.00" departDelay="0.08" arrival="675.00" arrivalLane="-E2_0" arrivalPos="75.64" arrivalSpeed="10.44" duration="661.00" routeLength="655.35" waitingTime="591.00" waitingCount="2" stopTime="0.00" timeLoss="602.66" rerouteNo="0" devices="tripinfo_veh6" vType="DEFAULT_VEHTYPE" speedFactor="0.83" vaporized=""/>
    <tripinfo id="veh68" depart="158.00" departLane="-E3_0" departPos="34.81" departSpeed="0.00" departDelay="0.24" arrival="676.00" arrivalLane="649036317#3_0" arrivalPos="113.32" arrivalSpeed="14.49" duration="518.00" routeLength="418.72" waitingTime="478.00" waitingCount="2" stopTime="0.00" timeLoss="489.25" rerouteNo="0" devices="tripinfo_veh68" vType="DEFAULT_VEHTYPE" speedFactor="1.08" vaporized=""/>
    <tripinfo id="veh152" depart="356.00" departLane="E2_0" departPos="26.39" departSpeed="0.00" departDelay="3.36" arrival="692.00" arrivalLane="-223632520#0_0" arrivalPos="55.66" arrivalSpeed="13.97" duration="336.00" routeLength="520.01" waitingTime="285.00" waitingCount="1" stopTime="0.00" timeLoss="297.59" rerouteNo="0" devices="tripinfo_veh152" vType="DEFAULT_VEHTYPE" speedFactor="1.02" vaporized=""/>
    <tripinfo id="veh254" depart="590.00" departLane="-223632520#2_0" departPos="165.98" departSpeed="0.00" departDelay="0.72" arrival="700.00" arrivalLane="258728090#4_0" arrivalPos="89.71" arrivalSpeed="8.53" duration="110.00" routeLength="1248.73" waitingTime="3.00" waitingCount="1" stopTime="0.00" timeLoss="24.96" rerouteNo="0" devices="tripinfo_veh254" vType="DEFAULT_VEHTYPE" speedFactor="1.09" vaporized=""/>
    <tripinfo id="veh18" depart="42.00" departLane="-649064896#1_0" departPos="12.25" departSpeed="0.00" departDelay="0.24" arrival="702.00" arrivalLane="-223632525#0_0" arrivalPos="198.61" arrivalSpeed="10.98" duration="660.00" routeLength="968.18" waitingTime="566.00" waitingCount="2" stopTime="0.00" timeLoss="580.00" rerouteNo="0" devices="tripinfo_veh18" vType="DEFAULT_VEHTYPE" speedFactor="0.88" vaporized=""/>
    <tripinfo id="veh7" depart="17.00" departLane="-144943776_0" departPos="711.03" departSpeed="0.00" departDelay="0.76" arrival="709.00" arrivalLane="223632526_0" arrivalPos="158.15" arrivalSpeed="13.30" duration="692.00" routeLength="1435.18" waitingTime="579.00" waitingCount="2" stopTime="0.00" timeLoss="599.23" rerouteNo="0" devices="tripinfo_veh7" vType="DEFAULT_VEHTYPE" speedFactor="1.05" vaporized=""/>
    <tripinfo id="veh0" depart="0.00" departLane="258728090#1_0" departPos="394.91" departSpeed="0.00" departDelay="0.00" arrival="765.00" arrivalLane="-258728090#0_0" arrivalPos="274.43" arrivalSpeed="13.58" duration="765.00" routeLength="1257.10" waitingTime="602.00" waitingCount="2" stopTime="0.00" timeLoss="618.11" rerouteNo="0" devices="tripinfo_veh0" vType="DEFAULT_VEHTYPE" speedFactor="1.06" vaporized=""/>
    <tripinfo id="veh3" depart="7.00" departLane="-223632526_0" departPos="79.27" departSpeed="0.00" departDelay="0.04" arrival="791.00" arrivalLane="649036317#3_0" arrivalPos="113.32" arrivalSpeed="15.02" duration="784.00" routeLength="1512.36" waitingTime="600.00" waitingCount="2" stopTime="0.00" timeLoss="621.61" rerouteNo="0" devices="tripinfo_veh3" vType="DEFAULT_VEHTYPE" speedFactor="1.08" vaporized=""/>
    <tripinfo id="veh64" depart="149.00" departLane="223632522_0" departPos="53.17" departSpeed="0.00" departDelay="0.52" arrival="832.00" arrivalLane="-223632525#0_0" arrivalPos="198.61" arrivalSpeed="11.37" duration="683.00" routeLength="718.07" waitingTime="534.00" waitingCount="2" stopTime="0.00" timeLoss="547.03" rerouteNo="0" devices="tripinfo_veh64" vType="DEFAULT_VEHTYPE" speedFactor="0.90" vaporized=""/>
    <tripinfo id="veh125" depart="290.00" departLane="-649064895_0" departPos="119.02" departSpeed="0.00" departDelay="0.00" arrival="919.00" arrivalLane="-258728090#4_0" arrivalPos="89.71" arrivalSpeed="13.07" duration="629.00" routeLength="1101.40" waitingTime="531.00" waitingCount="2" stopTime="0.00" timeLoss="549.11" rerouteNo="0" devices="tripinfo_veh125" vType="DEFAULT_VEHTYPE" speedFactor="1.01" vaporized=""/>
    <tripinfo id="veh43" depart="100.00" departLane="-649064896#1_0" departPos="25.49" departSpeed="0.00" departDelay="0.24" arrival="939.00" arrivalLane="-649064896#1_0" arrivalPos="203.30" arrivalSpeed="5.69" duration="839.00" routeLength="177.81" waitingTime="809.00" waitingCount="3" stopTime="0.00" timeLoss="825.69" rerouteNo="0" devices="tripinfo_veh43" vType="DEFAULT_VEHTYPE" speedFactor="0.97" vaporized=""/>
    <tripinfo id="veh56" depart="130.00" departLane="649064895_0" departPos="88.95" departSpeed="0.00" departDelay="0.08" arrival="977.00" arrivalLane="-E1_0" arrivalPos="283.45" arrivalSpeed="5.85" duration="847.00" routeLength="1166.41" waitingTime="709.00" waitingCount="5" stopTime="0.00" timeLoss="748.44" rerouteNo="0" devices="tripinfo_veh56" vType="DEFAULT_VEHTYPE" speedFactor="0.88" vaporized=""/>
    <tripinfo id="veh78" depart="181.00" departLane="-E3_0" departPos="2.98" departSpeed="0.00" departDelay="0.04" arrival="982.00" arrivalLane="649036317#3_0" arrivalPos="113.32" arrivalSpeed="13.34" duration="801.00" routeLength="450.55" waitingTime="753.00" waitingCount="3" stopTime="0.00" timeLoss="768.28" rerouteNo="0" devices="tripinfo_veh78" vType="DEFAULT_VEHTYPE" speedFactor="1.02" vaporized=""/>
    <tripinfo id="veh172" depart="400.00" departLane="649064895_0" departPos="91.90" departSpeed="0.00" departDelay="0.96" arrival="999.00" arrivalLane="-223632520#0_0" arrivalPos="55.66" arrivalSpeed="15.26" duration="599.00" routeLength="604.23" waitingTime="536.00" waitingCount="2" stopTime="0.00" timeLoss="560.60" rerouteNo="0" devices="tripinfo_veh172" vType="DEFAULT_VEHTYPE" speedFactor="1.18" vaporized=""/>
    <tripinfo id="veh157" depart="365.00" departLane="-258728090#4_0" departPos="5.66" departSpeed="0.00" departDelay="0.76" arrival="1012.00" arrivalLane="223632525#1_0" arrivalPos="311.00" arrivalSpeed="15.52" duration="647.00" routeLength="1193.40" waitingTime="547.00" waitingCount="2" stopTime="0.00" timeLoss="571.75" rerouteNo="0" devices="tripinfo_veh157" vType="DEFAULT_VEHTYPE" speedFactor="1.16" vaporized=""/>
    <tripinfo id="veh154" depart="360.00" departLane="E2_0" departPos="10.89" departSpeed="0.00" departDelay="2.72" arrival="1072.00" arrivalLane="649040853#2_0" arrivalPos="953.89" arrivalSpeed="20.23" duration="712.00" routeLength="1138.68" waitingTime="581.00" waitingCount="2" stopTime="0.00" timeLoss="594.38" rerouteNo="0" devices="tripinfo_veh154" vType="DEFAULT_VEHTYPE" speedFactor="0.95" vaporized=""/>
    <tripinfo id="veh13" depart="31.00" departLane="-671642282_0" departPos="181.61" departSpeed="0.00" departDelay="0.84" arrival="1098.00" arrivalLane="649036317#3_0" arrivalPos="113.32" arrivalSpeed="13.90" duration="1067.00" routeLength="1246.90" waitingTime="895.00" waitingCount="3" stopTime="0.00" timeLoss="917.69" rerouteNo="0" devices="tripinfo_veh13" vType="DEFAULT_VEHTYPE" speedFactor="1.03" vaporized=""/>
    <tripinfo id="veh103" depart="240.00" departLane="E3_0" departPos="30.56" departSpeed="0.00" departDelay="1.04" arrival="1272.00" arrivalLane="-258728090#2_0" arrivalPos="442.46" arrivalSpeed="11.93" duration="1032.00" routeLength="1994.48" waitingTime="846.00" waitingCount="3" stopTime="0.00" timeLoss="873.86" rerouteNo="0" devices="tripinfo_veh103" vType="DEFAULT_VEHTYPE" speedFactor="0.92" vaporized=""/>
    <tripinfo id="veh4" depart="10.00" departLane="-144943776_0" departPos="564.37" departSpeed="0.00" departDelay="0.72" arrival="1283.00" arrivalLane="649036317#3_0" arrivalPos="113.32" arrivalSpeed="13.15" duration="1273.00" routeLength="900.10" waitingTime="1179.00" waitingCount="3" stopTime="0.00" timeLoss="1201.49" rerouteNo="0" devices="tripinfo_veh4" vType="DEFAULT_VEHTYPE" speedFactor="1.03" vaporized=""/>
    <tripinfo id="veh183" depart="425.00" departLane="-258728090#4_0" departPos="49.83" departSpeed="0.00" departDelay="0.44" arrival="1292.00" arrivalLane="-223632520#2_0" arrivalPos="266.10" arrivalSpeed="15.03" duration="867.00" routeLength="704.08" waitingTime="793.00" waitingCount="3" stopTime="0.00" timeLoss="820.34" rerouteNo="0" devices="tripinfo_veh183" vType="DEFAULT_VEHTYPE" speedFactor="1.13" vaporized=""/>
    <tripinfo id="veh11" depart="26.00" departLane="-223632526_0" departPos="120.18" departSpeed="0.00" departDelay="0.48" arrival="1309.00" arrivalLane="649040853#1_0" arrivalPos="42.41" arrivalSpeed="18.91" duration="1283.00" routeLength="1060.33" waitingTime="1167.00" waitingCount="4" stopTime="0.00" timeLoss="1193.52" rerouteNo="0" devices="tripinfo_veh11" vType="DEFAULT_VEHTYPE" speedFactor="0.86" vaporized=""/>
    <tripinfo id="veh149" depart="346.00" departLane="-223632520#2_0" departPos="80.65" departSpeed="0.00" departDelay="0.32" arrival="1332.00" arrivalLane="E3_0" arrivalPos="63.66" arrivalSpeed="0.00" duration="986.00" routeLength="1037.92" waitingTime="830.00" waitingCount="3" stopTime="0.00" timeLoss="863.19" rerouteNo="0" devices="tripinfo_veh149" vType="DEFAULT_VEHTYPE" speedFactor="1.23" vaporized="teleport"/>