<?xml version="1.0" encoding="UTF-8"?>

<!-- generated on 2025-06-06 21:48:51 by Eclipse SUMO sumo Version 1.22.0
<sumoConfiguration xmlns:xsi="http://www.w3.org/2001/XMLSchema-instance" xsi:noNamespaceSchemaLocation="http://sumo.dlr.de/xsd/sumoConfiguration.xsd">

    <input>
        <net-file value="E:/licenta/oras-mediu/2025-05-27-13-15-06/osm.net.xml"/>
        <route-files value="E:/licenta/oras-mediu/2025-05-27-13-15-06/full.rou.xml,E:/licenta/oras-mediu/2025-05-27-13-15-06/ ped.rou.xml,E:/licenta/oras-mediu/2025-05-27-13-15-06/ truck.rou.xml"/>
        <additional-files value="E:/licenta/oras-mediu/2025-05-27-13-15-06/osm.poly.xml,E:/licenta/oras-mediu/2025-05-27-13-15-06/ vtypes.xml"/>
    </input>

    <output>
        <summary-output value="E:/licenta/oras-mediu/2025-05-27-13-15-06/summary.xml"/>
        <tripinfo-output value="E:/licenta/oras-mediu/2025-05-27-13-15-06/tripinfo.xml"/>
    </output>

    <processing>
        <ignore-route-errors value="true"/>
        <tls.actuated.jam-threshold value="30"/>
    </processing>

    <routing>
        <device.rerouting.adaptation-steps value="18"/>
        <device.rerouting.adaptation-interval value="10"/>
    </routing>

    <report>
        <verbose value="true"/>
        <duration-log.statistics value="true"/>
        <no-step-log value="true"/>
    </report>

    <traci_server>
        <remote-port value="60771"/>
    </traci_server>

    <gui_only>
        <gui-settings-file value="E:/licenta/oras-mediu/2025-05-27-13-15-06/osm.view.xml"/>
    </gui_only>

</sumoConfiguration>
-->

<tripinfos xmlns:xsi="http://www.w3.org/2001/XMLSchema-instance" xsi:noNamespaceSchemaLocation="http://sumo.dlr.de/xsd/tripinfo_file.xsd">
    <tripinfo id="veh16" depart="7.00" departLane="222605086_1" departPos="22.31" departSpeed="0.00" departDelay="0.76" arrival="39.00" arrivalLane="1250915724#0_1" arrivalPos="12.38" arrivalSpeed="4.70" duration="32.00" routeLength="150.75" waitingTime="0.00" waitingCount="0" stopTime="0.00" timeLoss="5.04" rerouteNo="0" devices="tripinfo_veh16" vType="passenger" speedFactor="1.01" vaporized=""/>
    <tripinfo id="veh46" depart="18.00" departLane="-1136301812#0_1" departPos="14.36" departSpeed="0.00" departDelay="0.06" arrival="41.00" arrivalLane="48778464#2_1" arrivalPos="24.43" arrivalSpeed="12.24" duration="23.00" routeLength="122.06" waitingTime="0.00" waitingCount="0" stopTime="0.00" timeLoss="5.94" rerouteNo="0" devices="tripinfo_veh46" vType="passenger" speedFactor="1.02" vaporized=""/>
    <tripinfo id="veh11" depart="5.00" departLane="48778457#1_1" departPos="1.52" departSpeed="0.00" departDelay="0.71" arrival="54.00" arrivalLane="-48797765#1_1" arrivalPos="28.98" arrivalSpeed="12.28" duration="49.00" routeLength="333.81" waitingTime="6.00" waitingCount="1" stopTime="0.00" timeLoss="20.02" rerouteNo="0" devices="tripinfo_veh11" vType="delivery" speedFactor="0.97" vaporized=""/>
    <tripinfo id="veh12" depart="5.00" departLane="40236144#0_1" departPos="61.30" departSpeed="0.00" departDelay="0.32" arrival="57.00" arrivalLane="984508802_0" arrivalPos="57.38" arrivalSpeed="5.16" duration="52.00" routeLength="424.45" waitingTime="0.00" waitingCount="0" stopTime="0.00" timeLoss="9.53" rerouteNo="0" devices="tripinfo_veh12" vType="emergency" speedFactor="1.00" vaporized=""/>
    <tripinfo id="veh36" depart="15.00" departLane="-353939570#9_2" departPos="2.03" departSpeed="0.00" departDelay="0.96" arrival="69.00" arrivalLane="-1251292610_1" arrivalPos="10.57" arrivalSpeed="5.40" duration="54.00" routeLength="381.41" waitingTime="0.00" waitingCount="0" stopTime="0.00" timeLoss="8.77" rerouteNo="0" devices="tripinfo_veh36" vType="passenger" speedFactor="1.09" vaporized=""/>
    <tripinfo id="veh80" depart="32.00" departLane="-48736642_1" departPos="100.49" departSpeed="0.00" departDelay="0.80" arrival="72.00" arrivalLane="492965073#5_2" arrivalPos="154.20" arrivalSpeed="14.86" duration="40.00" routeLength="478.94" waitingTime="0.00" waitingCount="0" stopTime="0.00" timeLoss="6.37" rerouteNo="0" devices="tripinfo_veh80" vType="passenger" speedFactor="1.08" vaporized=""/>
    <tripinfo id="veh15" depart="6.00" departLane="-40330575#4_1" departPos="20.42" departSpeed="0.00" departDelay="0.15" arrival="76.00" arrivalLane="-383582508#1_0" arrivalPos="33.34" arrivalSpeed="4.66" duration="70.00" routeLength="665.02" waitingTime="0.00" waitingCount="0" stopTime="0.00" timeLoss="10.06" rerouteNo="0" devices="tripinfo_veh15" vType="passenger" speedFactor="0.89" vaporized=""/>
    <tripinfo id="veh58" depart="23.00" departLane="-40299739#3_1" departPos="34.31" departSpeed="0.00" departDelay="0.38" arrival="82.00" arrivalLane="40314853#2_1" arrivalPos="33.62" arrivalSpeed="12.42" duration="59.00" routeLength="585.19" waitingTime="0.00" waitingCount="0" stopTime="0.00" timeLoss="18.62" rerouteNo="0" devices="tripinfo_veh58" vType="passenger" speedFactor="1.12" vaporized=""/>
    <tripinfo id="veh2" depart="1.00" departLane="48736614#1_1" departPos="108.80" departSpeed="0.00" departDelay="0.22" arrival="90.00" arrivalLane="647689085_1" arrivalPos="124.55" arrivalSpeed="14.36" duration="89.00" routeLength="940.41" waitingTime="0.00" waitingCount="0" stopTime="0.00" timeLoss="23.36" rerouteNo="0" devices="tripinfo_veh2" vType="passenger" speedFactor="1.08" vaporized=""/>
    <tripinfo id="veh116" depart="46.00" departLane="-647610982#0_1" departPos="171.01" departSpeed="0.00" departDelay="0.76" arrival="97.00" arrivalLane="-994066252#1_0" arrivalPos="52.62" arrivalSpeed="5.81" duration="51.00" routeLength="504.83" waitingTime="0.00" waitingCount="0" stopTime="0.00" timeLoss="12.58" rerouteNo="0" devices="tripinfo_veh116" vType="passenger" speedFactor="1.21" vaporized=""/>
    <tripinfo id="veh79" depart="31.00" departLane="-48778499#0_1" departPos="8.65" departSpeed="0.00" departDelay="0.19" arrival="100.00" arrivalLane="-48778502#0_1" arrivalPos="26.17" arrivalSpeed="12.03" duration="69.00" routeLength="588.94" waitingTime="0.00" waitingCount="0" stopTime="0.00" timeLoss="15.12" rerouteNo="0" devices="tripinfo_veh79" vType="passenger" speedFactor="0.89" vaporized=""/>
    <tripinfo id="veh70" depart="28.00" departLane="143207982#8_1" departPos="15.98" departSpeed="0.00" departDelay="0.70" arrival="103.00" arrivalLane="647677163_1" arrivalPos="73.51" arrivalSpeed="14.39" duration="75.00" routeLength="799.18" waitingTime="0.00" waitingCount="0" stopTime="0.00" timeLoss="17.15" rerouteNo="0" devices="tripinfo_veh70" vType="passenger" speedFactor="1.05" vaporized=""/>
    <tripinfo id="veh103" depart="41.00" departLane="-43544138#7_1" departPos="23.26" departSpeed="0.00" departDelay="0.83" arrival="106.00" arrivalLane="647998060#1_1" arrivalPos="57.23" arrivalSpeed="15.08" duration="65.00" routeLength="621.44" waitingTime="0.00" waitingCount="0" stopTime="0.00" timeLoss="18.63" rerouteNo="0" devices="tripinfo_veh103" vType="motorcycle" speedFactor="1.10" vaporized=""/>
    <tripinfo id="veh49" depart="20.00" departLane="48788485#0_1" departPos="299.93" departSpeed="0.00" departDelay="0.89" arrival="111.00" arrivalLane="-43573573#4_1" arrivalPos="73.63" arrivalSpeed="14.77" duration="91.00" routeLength="926.39" waitingTime="10.00" waitingCount="1" stopTime="0.00" timeLoss="29.89" rerouteNo="0" devices="tripinfo_veh49" vType="passenger" speedFactor="1.12" vaporized=""/>
    <tripinfo id="veh167" depart="66.00" departLane="353939574_0" departPos="167.19" departSpeed="0.00" departDelay="0.87" arrival="111.00" arrivalLane="48736612#1_1" arrivalPos="56.12" arrivalSpeed="13.15" duration="45.00" routeLength="387.40" waitingTime="0.00" waitingCount="0" stopTime="0.00" timeLoss="9.79" rerouteNo="0" devices="tripinfo_veh167" vType="passenger" speedFactor="0.98" vaporized=""/>
    <tripinfo id="veh120" depart="47.00" departLane="470210923#0_1" departPos="75.12" departSpeed="0.00" departDelay="0.20" arrival="113.00" arrivalLane="671642321_1" arrivalPos="87.26" arrivalSpeed="5.14" duration="66.00" routeLength="562.39" waitingTime="0.00" waitingCount="0" stopTime="0.00" timeLoss="10.15" rerouteNo="0" devices="tripinfo_veh120" vType="passenger" speedFactor="0.94" vaporized=""/>
    <personinfo id="ped8" depart="40.00" type="DEFAULT_PEDTYPE" speedFactor="1.00" duration="75.00" waitingTime="0.00" timeLoss="18.42" traveltime="75.00">
        <walk depart="40.00" departPos="0.00" arrival="115.00" arrivalPos="7.43" duration="75.00" routeLength="78.98" timeLoss="18.42" maxSpeed="1.40"/>
    </personinfo>
    <tripinfo id="veh146" depart="57.00" departLane="40330571#2_1" departPos="21.79" departSpeed="0.00" departDelay="0.06" arrival="115.00" arrivalLane="-353939570#7_1" arrivalPos="11.97" arrivalSpeed="11.51" duration="58.00" routeLength="602.19" waitingTime="0.00" waitingCount="0" stopTime="0.00" timeLoss="9.32" rerouteNo="0" devices="tripinfo_veh146" vType="passenger" speedFactor="0.91" vaporized=""/>
    <tripinfo id="veh77" depart="31.00" departLane="40265778#0_2" departPos="32.77" departSpeed="0.00" departDelay="0.97" arrival="117.00" arrivalLane="-48778498#2_1" arrivalPos="98.02" arrivalSpeed="13.51" duration="86.00" routeLength="745.66" waitingTime="17.00" waitingCount="1" stopTime="0.00" timeLoss="29.16" rerouteNo="0" devices="tripinfo_veh77" vType="delivery" speedFactor="0.98" vaporized=""/>
    <tripinfo id="veh32" depart="13.00" departLane="984521613_0" departPos="58.37" departSpeed="0.00" departDelay="0.52" arrival="118.00" arrivalLane="-40265774#1_1" arrivalPos="41.45" arrivalSpeed="13.71" duration="105.00" routeLength="1214.59" waitingTime="0.00" waitingCount="0" stopTime="0.00" timeLoss="16.89" rerouteNo="0" devices="tripinfo_veh32" vType="passenger" speedFactor="1.03" vaporized=""/>
    <tripinfo id="veh106" depart="42.00" departLane="383582854#1_0" departPos="32.46" departSpeed="0.00" departDelay="0.66" arrival="118.00" arrivalLane="48736621#2_1" arrivalPos="13.16" arrivalSpeed="13.71" duration="76.00" routeLength="528.50" waitingTime="11.00" waitingCount="1" stopTime="0.00" timeLoss="27.95" rerouteNo="0" devices="tripinfo_veh106" vType="passenger" speedFactor="1.04" vaporized=""/>
    <tripinfo id="veh132" depart="52.00" departLane="48736643_1" departPos="55.25" departSpeed="0.00" departDelay="0.52" arrival="123.00" arrivalLane="-176279225#4_1" arrivalPos="69.49" arrivalSpeed="15.54" duration="71.00" routeLength="779.78" waitingTime="0.00" waitingCount="0" stopTime="0.00" timeLoss="14.14" rerouteNo="0" devices="tripinfo_veh132" vType="passenger" speedFactor="1.13" vaporized=""/>
    <tripinfo id="veh173" depart="68.00" departLane="48797766#2_1" departPos="125.12" departSpeed="0.00" departDelay="0.53" arrival="126.00" arrivalLane="647741479_1" arrivalPos="102.89" arrivalSpeed="13.36" duration="58.00" routeLength="540.91" waitingTime="0.00" waitingCount="0" stopTime="0.00" timeLoss="13.68" rerouteNo="0" devices="tripinfo_veh173" vType="passenger" speedFactor="0.97" vaporized=""/>
    <tripinfo id="veh40" depart="16.00" departLane="-48736639#0_1" departPos="36.60" departSpeed="0.00" departDelay="0.40" arrival="128.00" arrivalLane="75628811#0_1" arrivalPos="56.41" arrivalSpeed="14.94" duration="112.00" routeLength="1161.74" waitingTime="0.00" waitingCount="0" stopTime="0.00" timeLoss="33.39" rerouteNo="0" devices="tripinfo_veh40" vType="passenger" speedFactor="1.17" vaporized=""/>
    <tripinfo id="veh104" depart="41.00" departLane="-48778527_1" departPos="55.20" departSpeed="0.00" departDelay="0.44" arrival="131.00" arrivalLane="-48778514#1_1" arrivalPos="255.62" arrivalSpeed="14.03" duration="90.00" routeLength="905.37" waitingTime="2.00" waitingCount="1" stopTime="0.00" timeLoss="23.32" rerouteNo="0" devices="tripinfo_veh104" vType="passenger" speedFactor="1.03" vaporized=""/>
    <tripinfo id="veh133" depart="52.00" departLane="-492965073#2_1" departPos="10.29" departSpeed="0.00" departDelay="0.13" arrival="134.00" arrivalLane="176279225#2_1" arrivalPos="97.77" arrivalSpeed="12.98" duration="82.00" routeLength="614.45" waitingTime="0.00" waitingCount="0" stopTime="0.00" timeLoss="13.36" rerouteNo="0" devices="tripinfo_veh133" vType="passenger" speedFactor="0.98" vaporized=""/>
    <tripinfo id="veh228" depart="89.00" departLane="-250295383#6_1" departPos="5.23" departSpeed="0.00" departDelay="0.08" arrival="134.00" arrivalLane="304695350#0_1" arrivalPos="0.20" arrivalSpeed="5.44" duration="45.00" routeLength="409.10" waitingTime="0.00" waitingCount="0" stopTime="0.00" timeLoss="11.00" rerouteNo="0" devices="tripinfo_veh228" vType="motorcycle" speedFactor="0.94" vaporized=""/>
    <personinfo id="ped0" depart="0.00" type="DEFAULT_PEDTYPE" speedFactor="1.03" duration="135.00" waitingTime="0.00" timeLoss="12.21" traveltime="135.00">
        <walk depart="0.00" departPos="0.00" arrival="135.00" arrivalPos="30.93" duration="135.00" routeLength="175.71" timeLoss="12.21" maxSpeed="1.43"/>
    </personinfo>
    <tripinfo id="veh61" depart="24.00" departLane="996984235_0" departPos="14.14" departSpeed="0.00" departDelay="0.21" arrival="135.00" arrivalLane="1136283361_0" arrivalPos="47.88" arrivalSpeed="5.94" duration="111.00" routeLength="799.34" waitingTime="27.00" waitingCount="1" stopTime="0.00" timeLoss="46.21" rerouteNo="0" devices="tripinfo_veh61" vType="passenger" speedFactor="1.09" vaporized=""/>
    <personinfo id="ped6" depart="30.00" type="DEFAULT_PEDTYPE" speedFactor="1.00" duration="106.00" waitingTime="0.00" timeLoss="20.14" traveltime="106.00">
        <walk depart="30.00" departPos="0.00" arrival="136.00" arrivalPos="36.28" duration="106.00" routeLength="119.60" timeLoss="20.14" maxSpeed="1.39"/>
    </personinfo>
    <tripinfo id="veh89" depart="35.00" departLane="647347140#2_1" departPos="5.63" departSpeed="0.00" departDelay="0.29" arrival="146.00" arrivalLane="-40306162#0_1" arrivalPos="91.74" arrivalSpeed="14.43" duration="111.00" routeLength="1330.75" waitingTime="0.00" waitingCount="0" stopTime="0.00" timeLoss="20.56" rerouteNo="0" devices="tripinfo_veh89" vType="passenger" speedFactor="1.10" vaporized=""/>
    <personinfo id="ped9" depart="45.00" type="DEFAULT_PEDTYPE" speedFactor="1.06" duration="102.00" waitingTime="0.00" timeLoss="10.69" traveltime="102.00">
        <walk depart="45.00" departPos="0.00" arrival="147.00" arrivalPos="28.59" duration="102.00" routeLength="133.99" timeLoss="10.69" maxSpeed="1.47"/>
    </personinfo>
    <tripinfo id="veh24" depart="10.00" departLane="43546519#2_1" departPos="2.65" departSpeed="0.00" departDelay="0.64" arrival="147.00" arrivalLane="222609004#1_1" arrivalPos="58.70" arrivalSpeed="14.40" duration="137.00" routeLength="1150.35" waitingTime="17.00" waitingCount="3" stopTime="0.00" timeLoss="59.32" rerouteNo="0" devices="tripinfo_veh24" vType="passenger" speedFactor="1.12" vaporized=""/>
    <tripinfo id="veh55" depart="22.00" departLane="-1001108554_1" departPos="2.30" departSpeed="0.00" departDelay="0.55" arrival="147.00" arrivalLane="945794109_1" arrivalPos="21.82" arrivalSpeed="7.72" duration="125.00" routeLength="1163.87" waitingTime="2.00" waitingCount="1" stopTime="0.00" timeLoss="17.73" rerouteNo="0" devices="tripinfo_veh55" vType="passenger" speedFactor="1.02" vaporized=""/>
    <tripinfo id="veh136" depart="54.00" departLane="-222609002#2_1" departPos="7.87" departSpeed="0.00" departDelay="0.96" arrival="152.00" arrivalLane="-67712683_1" arrivalPos="77.22" arrivalSpeed="13.55" duration="98.00" routeLength="965.97" waitingTime="0.00" waitingCount="0" stopTime="0.00" timeLoss="18.93" rerouteNo="0" devices="tripinfo_veh136" vType="passenger" speedFactor="1.06" vaporized=""/>
    <personinfo id="ped4" depart="20.00" type="DEFAULT_PEDTYPE" speedFactor="1.04" duration="133.00" waitingTime="0.00" timeLoss="13.49" traveltime="133.00">
        <walk depart="20.00" departPos="0.00" arrival="153.00" arrivalPos="17.75" duration="133.00" routeLength="172.35" timeLoss="13.49" maxSpeed="1.44"/>
    </personinfo>
    <tripinfo id="veh227" depart="89.00" departLane="-258551279_0" departPos="122.55" departSpeed="0.00" departDelay="0.47" arrival="153.00" arrivalLane="1136289992_1" arrivalPos="17.60" arrivalSpeed="8.17" duration="64.00" routeLength="621.59" waitingTime="0.00" waitingCount="0" stopTime="0.00" timeLoss="13.06" rerouteNo="0" devices="tripinfo_veh227" vType="passenger" speedFactor="1.10" vaporized=""/>
    <tripinfo id="veh172" depart="68.00" departLane="-43546570#1_1" departPos="67.25" departSpeed="0.00" departDelay="0.92" arrival="154.00" arrivalLane="530103972_1" arrivalPos="49.14" arrivalSpeed="2.58" duration="86.00" routeLength="702.63" waitingTime="0.00" waitingCount="0" stopTime="0.00" timeLoss="18.91" rerouteNo="0" devices="tripinfo_veh172" vType="passenger" speedFactor="0.96" vaporized=""/>
    <personinfo id="ped1" depart="5.00" type="DEFAULT_PEDTYPE" speedFactor="0.83" duration="150.00" waitingTime="0.00" timeLoss="14.65" traveltime="150.00">
        <walk depart="5.00" departPos="0.00" arrival="155.00" arrivalPos="45.09" duration="150.00" routeLength="156.21" timeLoss="14.65" maxSpeed="1.15"/>
    </personinfo>
    <tripinfo id="veh68" depart="27.00" departLane="859732803#0_0" departPos="9.44" departSpeed="0.00" departDelay="0.48" arrival="155.00" arrivalLane="40330592_1" arrivalPos="133.23" arrivalSpeed="12.60" duration="128.00" routeLength="831.84" waitingTime="37.00" waitingCount="1" stopTime="0.00" timeLoss="56.84" rerouteNo="0" devices="tripinfo_veh68" vType="motorcycle" speedFactor="0.94" vaporized=""/>
    <tripinfo id="veh181" depart="71.00" departLane="-143207982#5_1" departPos="17.88" departSpeed="0.00" departDelay="0.41" arrival="155.00" arrivalLane="48736656#2_1" arrivalPos="51.77" arrivalSpeed="14.55" duration="84.00" routeLength="575.41" waitingTime="19.00" waitingCount="1" stopTime="0.00" timeLoss="45.67" rerouteNo="0" devices="tripinfo_veh181" vType="passenger" speedFactor="1.11" vaporized=""/>
    <personinfo id="ped5" depart="25.00" type="DEFAULT_PEDTYPE" speedFactor="1.09" duration="131.00" waitingTime="0.00" timeLoss="14.17" traveltime="131.00">
        <walk depart="25.00" departPos="0.00" arrival="156.00" arrivalPos="24.97" duration="131.00" routeLength="176.10" timeLoss="14.17" maxSpeed="1.51"/>
    </personinfo>
    <tripinfo id="veh10" depart="4.00" departLane="-1250915720#1_1" departPos="2.88" departSpeed="0.00" departDelay="0.10" arrival="157.00" arrivalLane="-258551283#1_1" arrivalPos="55.98" arrivalSpeed="4.69" duration="153.00" routeLength="1584.68" waitingTime="6.00" waitingCount="2" stopTime="0.00" timeLoss="27.89" rerouteNo="0" devices="tripinfo_veh10" vType="passenger" speedFactor="1.04" vaporized=""/>
    <tripinfo id="veh138" depart="54.00" departLane="40330575#3_1" departPos="10.49" departSpeed="0.00" departDelay="0.18" arrival="157.00" arrivalLane="48778510#0_1" arrivalPos="7.19" arrivalSpeed="10.43" duration="103.00" routeLength="1107.51" waitingTime="0.00" waitingCount="0" stopTime="0.00" timeLoss="18.62" rerouteNo="0" devices="tripinfo_veh138" vType="motorcycle" speedFactor="1.02" vaporized=""/>
    <tripinfo id="veh217" depart="85.00" departLane="-40314583#7_1" departPos="22.49" departSpeed="0.00" departDelay="0.37" arrival="160.00" arrivalLane="-48736614#2_1" arrivalPos="59.68" arrivalSpeed="11.04" duration="75.00" routeLength="791.05" waitingTime="0.00" waitingCount="0" stopTime="0.00" timeLoss="7.23" rerouteNo="0" devices="tripinfo_veh217" vType="passenger" speedFactor="0.85" vaporized=""/>
    <tripinfo id="veh186" depart="73.00" departLane="48736656#3_1" departPos="19.49" departSpeed="0.00" departDelay="0.46" arrival="161.00" arrivalLane="-353939574_0" arrivalPos="189.91" arrivalSpeed="3.81" duration="88.00" routeLength="643.24" waitingTime="2.00" waitingCount="1" stopTime="0.00" timeLoss="25.88" rerouteNo="0" devices="tripinfo_veh186" vType="motorcycle" speedFactor="1.14" vaporized=""/>
    <tripinfo id="veh118" depart="48.00" departLane="43544197#6_1" departPos="23.27" departSpeed="0.00" departDelay="1.98" arrival="162.00" arrivalLane="996486453_1" arrivalPos="111.92" arrivalSpeed="13.09" duration="114.00" routeLength="1048.87" waitingTime="3.00" waitingCount="1" stopTime="0.00" timeLoss="30.42" rerouteNo="0" devices="tripinfo_veh118" vType="passenger" speedFactor="0.97" vaporized=""/>
    <tripinfo id="veh54" depart="22.00" departLane="43544184#3_1" departPos="38.74" departSpeed="0.00" departDelay="0.94" arrival="164.00" arrivalLane="40236144#3_1" arrivalPos="85.78" arrivalSpeed="12.88" duration="142.00" routeLength="1497.04" waitingTime="0.00" waitingCount="0" stopTime="0.00" timeLoss="19.54" rerouteNo="0" devices="tripinfo_veh54" vType="passenger" speedFactor="0.95" vaporized=""/>
    <tripinfo id="veh67" depart="27.00" departLane="-48736621#0_1" departPos="12.14" departSpeed="0.00" departDelay="0.87" arrival="164.00" arrivalLane="1364828571_0" arrivalPos="94.46" arrivalSpeed="4.95" duration="137.00" routeLength="1206.55" waitingTime="11.00" waitingCount="1" stopTime="0.00" timeLoss="32.98" rerouteNo="0" devices="tripinfo_veh67" vType="passenger" speedFactor="1.01" vaporized=""/>
    <tripinfo id="veh8" depart="4.00" departLane="43544197#6_1" departPos="19.02" departSpeed="0.00" departDelay="0.88" arrival="165.00" arrivalLane="1136283379#1_1" arrivalPos="30.99" arrivalSpeed="7.02" duration="161.00" routeLength="1612.86" waitingTime="0.00" waitingCount="0" stopTime="0.00" timeLoss="23.83" rerouteNo="0" devices="tripinfo_veh8" vType="passenger" speedFactor="0.90" vaporized=""/>
    <tripinfo id="veh51" depart="20.00" departLane="-354252035_1" departPos="98.56" departSpeed="0.00" departDelay="0.11" arrival="165.00" arrivalLane="859732803#1_0" arrivalPos="26.12" arrivalSpeed="5.41" duration="145.00" routeLength="1632.08" waitingTime="0.00" waitingCount="0" stopTime="0.00" timeLoss="17.66" rerouteNo="0" devices="tripinfo_veh51" vType="delivery" speedFactor="0.99" vaporized=""/>
    <tripinfo id="veh141" depart="55.00" departLane="-1135772296#1_0" departPos="25.19" departSpeed="0.00" departDelay="0.01" arrival="165.00" arrivalLane="470204656_2" arrivalPos="37.64" arrivalSpeed="8.95" duration="110.00" routeLength="807.79" waitingTime="31.00" waitingCount="1" stopTime="0.00" timeLoss="48.94" rerouteNo="0" devices="tripinfo_veh141" vType="motorcycle" speedFactor="1.08" vaporized=""/>
    <tripinfo id="veh276" depart="108.00" departLane="48736657#0_1" departPos="3.43" departSpeed="0.00" departDelay="0.36" arrival="165.00" arrivalLane="-48736625_1" arrivalPos="44.40" arrivalSpeed="5.97" duration="57.00" routeLength="434.77" waitingTime="0.00" waitingCount="0" stopTime="0.00" timeLoss="11.37" rerouteNo="0" devices="tripinfo_veh276" vType="passenger" speedFactor="0.82" vaporized=""/>
    <tripinfo id="veh295" depart="116.00" departLane="647226815#0_1" departPos="25.27" departSpeed="0.00" departDelay="0.95" arrival="165.00" arrivalLane="-48778526_1" arrivalPos="97.35" arrivalSpeed="13.48" duration="49.00" routeLength="551.47" waitingTime="0.00" waitingCount="0" stopTime="0.00" timeLoss="7.78" rerouteNo="0" devices="tripinfo_veh295" vType="delivery" speedFactor="1.01" vaporized=""/>
    <tripinfo id="veh13" depart="6.00" departLane="1135855912_1" departPos="4.34" departSpeed="0.00" departDelay="0.93" arrival="168.00" arrivalLane="530106516#0_1" arrivalPos="77.36" arrivalSpeed="13.62" duration="162.00" routeLength="1579.93" waitingTime="16.00" waitingCount="1" stopTime="0.00" timeLoss="43.91" rerouteNo="0" devices="tripinfo_veh13" vType="passenger" speedFactor="1.02" vaporized=""/>
    <tripinfo id="veh97" depart="38.00" departLane="672409435#0_1" departPos="5.91" departSpeed="0.00" departDelay="0.17" arrival="168.00" arrivalLane="-273835686#1_1" arrivalPos="75.58" arrivalSpeed="13.32" duration="130.00" routeLength="1506.07" waitingTime="0.00" waitingCount="0" stopTime="0.00" timeLoss="23.39" rerouteNo="0" devices="tripinfo_veh97" vType="passenger" speedFactor="1.02" vaporized=""/>
    <tripinfo id="veh76" depart="30.00" departLane="1136119745_1" departPos="8.24" departSpeed="0.00" departDelay="0.36" arrival="169.00" arrivalLane="671606407_1" arrivalPos="0.55" arrivalSpeed="5.77" duration="139.00" routeLength="1401.58" waitingTime="3.00" waitingCount="1" stopTime="0.00" timeLoss="25.12" rerouteNo="0" devices="tripinfo_veh76" vType="emergency" speedFactor="1.00" vaporized=""/>
    <tripinfo id="veh110" depart="43.00" departLane="43546648#8_1" departPos="3.47" departSpeed="0.00" departDelay="0.10" arrival="169.00" arrivalLane="48778481#9_2" arrivalPos="307.74" arrivalSpeed="13.02" duration="126.00" routeLength="1432.83" waitingTime="0.00" waitingCount="0" stopTime="0.00" timeLoss="19.52" rerouteNo="0" devices="tripinfo_veh110" vType="passenger" speedFactor="1.02" vaporized=""/>
    <tripinfo id="veh135" depart="53.00" departLane="43545645#0_1" departPos="169.55" departSpeed="0.00" departDelay="0.35" arrival="169.00" arrivalLane="43547017#0_1" arrivalPos="89.49" arrivalSpeed="11.76" duration="116.00" routeLength="1260.53" waitingTime="0.00" waitingCount="0" stopTime="0.00" timeLoss="12.66" rerouteNo="0" devices="tripinfo_veh135" vType="passenger" speedFactor="0.90" vaporized=""/>
    <tripinfo id="veh62" depart="25.00" departLane="43544179#11_1" departPos="32.33" departSpeed="0.00" departDelay="0.82" arrival="170.00" arrivalLane="859734514#1_0" arrivalPos="56.51" arrivalSpeed="4.60" duration="145.00" routeLength="1345.73" waitingTime="0.00" waitingCount="0" stopTime="0.00" timeLoss="17.33" rerouteNo="0" devices="tripinfo_veh62" vType="passenger" speedFactor="0.90" vaporized=""/>
    <tripinfo id="veh237" depart="93.00" departLane="-40304754#3_1" departPos="1.31" departSpeed="0.00" departDelay="0.57" arrival="170.00" arrivalLane="-43546039#3_1" arrivalPos="47.87" arrivalSpeed="13.20" duration="77.00" routeLength="893.99" waitingTime="0.00" waitingCount="0" stopTime="0.00" timeLoss="9.10" rerouteNo="0" devices="tripinfo_veh237" vType="delivery" speedFactor="0.97" vaporized=""/>
    <tripinfo id="veh200" depart="78.00" departLane="40304754#4_1" departPos="64.45" departSpeed="0.00" departDelay="0.00" arrival="171.00" arrivalLane="43546648#2_1" arrivalPos="79.89" arrivalSpeed="10.09" duration="93.00" routeLength="848.18" waitingTime="0.00" waitingCount="0" stopTime="0.00" timeLoss="13.28" rerouteNo="0" devices="tripinfo_veh200" vType="passenger" speedFactor="0.80" vaporized=""/>
    <tripinfo id="veh108" depart="43.00" departLane="-48778472_1" departPos="3.89" departSpeed="0.00" departDelay="0.88" arrival="172.00" arrivalLane="-996984132_0" arrivalPos="105.31" arrivalSpeed="5.07" duration="129.00" routeLength="1031.27" waitingTime="18.00" waitingCount="1" stopTime="0.00" timeLoss="41.36" rerouteNo="0" devices="tripinfo_veh108" vType="passenger" speedFactor="1.01" vaporized=""/>
    <tripinfo id="veh84" depart="33.00" departLane="-176279225#4_1" departPos="51.50" departSpeed="0.00" departDelay="0.24" arrival="173.00" arrivalLane="-40345956#3_1" arrivalPos="5.00" arrivalSpeed="8.28" duration="140.00" routeLength="1332.58" waitingTime="15.00" waitingCount="1" stopTime="0.00" timeLoss="38.42" rerouteNo="0" devices="tripinfo_veh84" vType="delivery" speedFactor="1.03" vaporized=""/>
    <tripinfo id="veh249" depart="98.00" departLane="-647998063#1_1" departPos="15.01" departSpeed="0.00" departDelay="0.89" arrival="173.00" arrivalLane="-43544138#6_1" arrivalPos="39.11" arrivalSpeed="14.50" duration="75.00" routeLength="783.36" waitingTime="0.00" waitingCount="0" stopTime="0.00" timeLoss="22.13" rerouteNo="0" devices="tripinfo_veh249" vType="passenger" speedFactor="1.13" vaporized=""/>
    <personinfo id="ped10" depart="50.00" type="DEFAULT_PEDTYPE" speedFactor="0.96" duration="125.00" waitingTime="0.00" timeLoss="13.75" traveltime="125.00">
        <walk depart="50.00" departPos="0.00" arrival="175.00" arrivalPos="13.40" duration="125.00" routeLength="149.02" timeLoss="13.75" maxSpeed="1.34"/>
    </personinfo>
    <tripinfo id="veh212" depart="83.00" departLane="48736661_1" departPos="6.27" departSpeed="0.00" departDelay="0.32" arrival="175.00" arrivalLane="1136279388_0" arrivalPos="33.51" arrivalSpeed="4.89" duration="92.00" routeLength="838.99" waitingTime="0.00" waitingCount="0" stopTime="0.00" timeLoss="12.59" rerouteNo="0" devices="tripinfo_veh212" vType="passenger" speedFactor="0.94" vaporized=""/>
    <tripinfo id="veh111" depart="44.00" departLane="43544197#5_1" departPos="27.85" departSpeed="0.00" departDelay="0.71" arrival="179.00" arrivalLane="40236220#0_1" arrivalPos="34.75" arrivalSpeed="12.82" duration="135.00" routeLength="1597.01" waitingTime="0.00" waitingCount="0" stopTime="0.00" timeLoss="23.49" rerouteNo="0" devices="tripinfo_veh111" vType="passenger" speedFactor="1.06" vaporized=""/>
    <tripinfo id="veh170" depart="67.00" departLane="-48736613#2_1" departPos="140.39" departSpeed="0.00" departDelay="0.70" arrival="179.00" arrivalLane="-273835688_1" arrivalPos="177.49" arrivalSpeed="15.67" duration="112.00" routeLength="1322.10" waitingTime="0.00" waitingCount="0" stopTime="0.00" timeLoss="25.81" rerouteNo="0" devices="tripinfo_veh170" vType="passenger" speedFactor="1.17" vaporized=""/>
    <tripinfo id="veh205" depart="80.00" departLane="1135854143_1" departPos="33.98" departSpeed="0.00" departDelay="0.05" arrival="180.00" arrivalLane="48778443#2_1" arrivalPos="37.75" arrivalSpeed="10.56" duration="100.00" routeLength="601.20" waitingTime="30.00" waitingCount="2" stopTime="0.00" timeLoss="57.78" rerouteNo="0" devices="tripinfo_veh205" vType="passenger" speedFactor="1.13" vaporized=""/>
    <tripinfo id="veh256" depart="100.00" departLane="671593845_1" departPos="0.13" departSpeed="0.00" departDelay="0.16" arrival="180.00" arrivalLane="-43547296#1_1" arrivalPos="15.85" arrivalSpeed="10.72" duration="80.00" routeLength="861.48" waitingTime="1.00" waitingCount="1" stopTime="0.00" timeLoss="12.09" rerouteNo="0" devices="tripinfo_veh256" vType="passenger" speedFactor="0.94" vaporized=""/>