<?xml version="1.0" encoding="UTF-8"?>

<!-- generated on 2025-06-12 12:32:59 by Eclipse SUMO sumo Version 1.22.0
<sumoConfiguration xmlns:xsi="http://www.w3.org/2001/XMLSchema-instance" xsi:noNamespaceSchemaLocation="http://sumo.dlr.de/xsd/sumoConfiguration.xsd">

    <input>
        <net-file value="osm.net.xml"/>
        <route-files value="full.rou.xml, ped.rou.xml, truck.rou.xml"/>
        <additional-files value="osm.poly.xml, vtypes.xml"/>
    </input>

    <output>
        <summary-output value="summary.xml"/>
        <tripinfo-output value="E:\licenta\oras-mediu\2025-06-05-11-45-23\baseline_outputs\tripinfo_baseline_ep16.xml"/>
    </output>

    <processing>
        <ignore-route-errors value="true"/>
        <tls.actuated.jam-threshold value="30"/>
    </processing>

    <routing>
        <device.rerouting.adaptation-steps value="18"/>
        <device.rerouting.adaptation-interval value="10"/>
    </routing>

    <report>
        <verbose value="true"/>
        <duration-log.statistics value="true"/>
        <no-step-log value="true"/>
    </report>

    <traci_server>
        <remote-port value="64527"/>
    </traci_server>

    <gui_only>
        <gui-settings-file value="osm.view.xml"/>
    </gui_only>

</sumoConfiguration>
-->

<tripinfos xmlns:xsi="http://www.w3.org/2001/XMLSchema-instance" xsi:noNamespaceSchemaLocation="http://sumo.dlr.de/xsd/tripinfo_file.xsd">
    <personinfo id="ped4" depart="20.00" type="DEFAULT_PEDTYPE" speedFactor="0.87" duration="8.00" waitingTime="0.00" timeLoss="0.69" traveltime="8.00">
        <walk depart="20.00" departPos="0.00" arrival="28.00" arrivalPos="8.80" duration="8.00" routeLength="8.80" timeLoss="0.69" maxSpeed="1.20"/>
    </personinfo>
    <tripinfo id="veh60" depart="26.00" departLane="-43546039#2_1" departPos="158.02" departSpeed="0.00" departDelay="0.20" arrival="75.00" arrivalLane="43546064#2_1" arrivalPos="103.27" arrivalSpeed="15.35" duration="49.00" routeLength="478.69" waitingTime="0.00" waitingCount="0" stopTime="0.00" timeLoss="14.89" rerouteNo="0" devices="tripinfo_veh60" vType="passenger" speedFactor="1.12" vaporized=""/>
    <tripinfo id="veh30" depart="13.00" departLane="43544001#10_1" departPos="27.02" departSpeed="0.00" departDelay="0.10" arrival="76.00" arrivalLane="1136289988_1" arrivalPos="17.66" arrivalSpeed="7.41" duration="63.00" routeLength="640.67" waitingTime="0.00" waitingCount="0" stopTime="0.00" timeLoss="10.65" rerouteNo="0" devices="tripinfo_veh30" vType="passenger" speedFactor="0.94" vaporized=""/>
    <tripinfo id="veh6" depart="3.00" departLane="40236220#1_1" departPos="16.41" departSpeed="0.00" departDelay="0.42" arrival="89.00" arrivalLane="470210923#4_1" arrivalPos="79.54" arrivalSpeed="14.41" duration="86.00" routeLength="1058.85" waitingTime="0.00" waitingCount="0" stopTime="0.00" timeLoss="11.55" rerouteNo="0" devices="tripinfo_veh6" vType="delivery" speedFactor="1.05" vaporized=""/>
    <tripinfo id="veh51" depart="22.00" departLane="-43544179#8_1" departPos="12.76" departSpeed="0.00" departDelay="0.07" arrival="96.00" arrivalLane="-383582506_0" arrivalPos="44.83" arrivalSpeed="6.09" duration="74.00" routeLength="756.00" waitingTime="0.00" waitingCount="0" stopTime="0.00" timeLoss="15.16" rerouteNo="0" devices="tripinfo_veh51" vType="passenger" speedFactor="1.12" vaporized=""/>
    <tripinfo id="veh28" depart="13.00" departLane="40236220#1_1" departPos="2.68" departSpeed="0.00" departDelay="0.96" arrival="100.00" arrivalLane="-43573547#6_1" arrivalPos="56.24" arrivalSpeed="12.91" duration="87.00" routeLength="940.73" waitingTime="0.00" waitingCount="0" stopTime="0.00" timeLoss="14.42" rerouteNo="0" devices="tripinfo_veh28" vType="passenger" speedFactor="0.97" vaporized=""/>
    <tripinfo id="veh91" depart="40.00" departLane="-43546064#2_1" departPos="56.02" departSpeed="0.00" departDelay="0.87" arrival="101.00" arrivalLane="647226815#0_1" arrivalPos="44.36" arrivalSpeed="13.47" duration="61.00" routeLength="567.45" waitingTime="0.00" waitingCount="0" stopTime="0.00" timeLoss="15.85" rerouteNo="0" devices="tripinfo_veh91" vType="delivery" speedFactor="1.01" vaporized=""/>
    <tripinfo id="veh77" depart="34.00" departLane="-48778510#1_1" departPos="71.70" departSpeed="0.00" departDelay="0.89" arrival="120.00" arrivalLane="48778494#1_1" arrivalPos="15.92" arrivalSpeed="10.46" duration="86.00" routeLength="815.46" waitingTime="3.00" waitingCount="1" stopTime="0.00" timeLoss="28.25" rerouteNo="0" devices="tripinfo_veh77" vType="passenger" speedFactor="1.10" vaporized=""/>
    <tripinfo id="veh78" depart="34.00" departLane="-250295383#6_1" departPos="10.37" departSpeed="0.00" departDelay="0.46" arrival="122.00" arrivalLane="-48778454#1_1" arrivalPos="94.52" arrivalSpeed="13.61" duration="88.00" routeLength="673.51" waitingTime="12.00" waitingCount="1" stopTime="0.00" timeLoss="34.66" rerouteNo="0" devices="tripinfo_veh78" vType="emergency" speedFactor="1.00" vaporized=""/>
    <tripinfo id="veh25" depart="11.00" departLane="-354252043_1" departPos="24.59" departSpeed="0.00" departDelay="0.25" arrival="126.00" arrivalLane="-43544001#15_1" arrivalPos="24.27" arrivalSpeed="12.82" duration="115.00" routeLength="1429.74" waitingTime="0.00" waitingCount="0" stopTime="0.00" timeLoss="19.40" rerouteNo="0" devices="tripinfo_veh25" vType="passenger" speedFactor="1.12" vaporized=""/>
    <tripinfo id="veh105" depart="46.00" departLane="48788485#4_1" departPos="11.44" departSpeed="0.00" departDelay="0.85" arrival="126.00" arrivalLane="-43544138#7_1" arrivalPos="43.93" arrivalSpeed="12.40" duration="80.00" routeLength="968.19" waitingTime="0.00" waitingCount="0" stopTime="0.00" timeLoss="14.04" rerouteNo="0" devices="tripinfo_veh105" vType="motorcycle" speedFactor="1.10" vaporized=""/>
    <tripinfo id="veh48" depart="21.00" departLane="-40334245#1_1" departPos="21.95" departSpeed="0.00" departDelay="0.36" arrival="127.00" arrivalLane="945793490#2_1" arrivalPos="11.86" arrivalSpeed="5.51" duration="106.00" routeLength="863.62" waitingTime="0.00" waitingCount="0" stopTime="0.00" timeLoss="17.56" rerouteNo="0" devices="tripinfo_veh48" vType="passenger" speedFactor="1.02" vaporized=""/>
    <tripinfo id="veh33" depart="15.00" departLane="-984508804_0" departPos="25.68" departSpeed="0.00" departDelay="0.81" arrival="128.00" arrivalLane="-1250915720#6_1" arrivalPos="63.36" arrivalSpeed="4.73" duration="113.00" routeLength="979.60" waitingTime="6.00" waitingCount="1" stopTime="0.00" timeLoss="32.29" rerouteNo="0" devices="tripinfo_veh33" vType="passenger" speedFactor="1.03" vaporized=""/>
    <tripinfo id="veh117" depart="51.00" departLane="40299241#2_1" departPos="110.01" departSpeed="0.00" departDelay="0.69" arrival="129.00" arrivalLane="-256684296_0" arrivalPos="80.07" arrivalSpeed="2.13" duration="78.00" routeLength="552.71" waitingTime="0.00" waitingCount="0" stopTime="0.00" timeLoss="13.92" rerouteNo="0" devices="tripinfo_veh117" vType="delivery" speedFactor="1.01" vaporized=""/>
    <tripinfo id="veh151" depart="65.00" departLane="-40306149_1" departPos="30.02" departSpeed="0.00" departDelay="0.07" arrival="131.00" arrivalLane="-48797772_1" arrivalPos="103.62" arrivalSpeed="12.51" duration="66.00" routeLength="620.77" waitingTime="0.00" waitingCount="0" stopTime="0.00" timeLoss="12.57" rerouteNo="0" devices="tripinfo_veh151" vType="passenger" speedFactor="0.91" vaporized=""/>
    <personinfo id="ped22" depart="110.00" type="DEFAULT_PEDTYPE" speedFactor="0.94" duration="29.00" waitingTime="0.00" timeLoss="3.59" traveltime="29.00">
        <walk depart="110.00" departPos="0.00" arrival="139.00" arrivalPos="28.32" duration="29.00" routeLength="33.03" timeLoss="3.59" maxSpeed="1.30"/>
    </personinfo>
    <tripinfo id="veh79" depart="34.00" departLane="43544179#8_1" departPos="3.64" departSpeed="0.00" departDelay="0.03" arrival="139.00" arrivalLane="647998063#2_1" arrivalPos="103.13" arrivalSpeed="12.77" duration="105.00" routeLength="1140.82" waitingTime="0.00" waitingCount="0" stopTime="0.00" timeLoss="18.64" rerouteNo="0" devices="tripinfo_veh79" vType="delivery" speedFactor="0.98" vaporized=""/>
    <tripinfo id="veh136" depart="59.00" departLane="250295383#0_1" departPos="0.54" departSpeed="0.00" departDelay="0.52" arrival="140.00" arrivalLane="48778449#1_1" arrivalPos="70.68" arrivalSpeed="15.42" duration="81.00" routeLength="890.72" waitingTime="0.00" waitingCount="0" stopTime="0.00" timeLoss="19.38" rerouteNo="0" devices="tripinfo_veh136" vType="passenger" speedFactor="1.13" vaporized=""/>
    <tripinfo id="veh71" depart="31.00" departLane="43546935#1_1" departPos="37.13" departSpeed="0.00" departDelay="0.47" arrival="141.00" arrivalLane="43544179#8_1" arrivalPos="43.05" arrivalSpeed="11.12" duration="110.00" routeLength="985.82" waitingTime="2.00" waitingCount="1" stopTime="0.00" timeLoss="20.47" rerouteNo="0" devices="tripinfo_veh71" vType="passenger" speedFactor="0.83" vaporized=""/>
    <tripinfo id="veh83" depart="36.00" departLane="-48778496_1" departPos="28.62" departSpeed="0.00" departDelay="0.31" arrival="141.00" arrivalLane="1136283361_0" arrivalPos="47.88" arrivalSpeed="5.58" duration="105.00" routeLength="479.06" waitingTime="42.00" waitingCount="1" stopTime="0.00" timeLoss="58.27" rerouteNo="0" devices="tripinfo_veh83" vType="passenger" speedFactor="1.08" vaporized=""/>
    <tripinfo id="veh40" depart="18.00" departLane="48778480#0_2" departPos="223.44" departSpeed="0.00" departDelay="0.80" arrival="142.00" arrivalLane="40299739#2_1" arrivalPos="43.24" arrivalSpeed="14.65" duration="124.00" routeLength="1350.55" waitingTime="14.00" waitingCount="1" stopTime="0.00" timeLoss="31.60" rerouteNo="0" devices="tripinfo_veh40" vType="passenger" speedFactor="1.06" vaporized=""/>
    <tripinfo id="veh22" depart="10.00" departLane="383582514_1" departPos="194.25" departSpeed="0.00" departDelay="0.54" arrival="146.00" arrivalLane="40266909#0_1" arrivalPos="56.72" arrivalSpeed="14.75" duration="136.00" routeLength="1679.43" waitingTime="0.00" waitingCount="0" stopTime="0.00" timeLoss="24.37" rerouteNo="0" devices="tripinfo_veh22" vType="passenger" speedFactor="1.13" vaporized=""/>
    <tripinfo id="veh99" depart="43.00" departLane="-48797767#1_1" departPos="13.03" departSpeed="0.00" departDelay="0.43" arrival="146.00" arrivalLane="1136301815#1_1" arrivalPos="29.62" arrivalSpeed="12.26" duration="103.00" routeLength="1007.84" waitingTime="0.00" waitingCount="0" stopTime="0.00" timeLoss="26.60" rerouteNo="0" devices="tripinfo_veh99" vType="passenger" speedFactor="1.03" vaporized=""/>
    <tripinfo id="veh62" depart="27.00" departLane="422283114_0" departPos="180.54" departSpeed="0.00" departDelay="0.34" arrival="151.00" arrivalLane="40299241#3_1" arrivalPos="62.98" arrivalSpeed="12.55" duration="124.00" routeLength="815.51" waitingTime="41.00" waitingCount="2" stopTime="0.00" timeLoss="56.58" rerouteNo="0" devices="tripinfo_veh62" vType="passenger" speedFactor="0.92" vaporized=""/>
    <tripinfo id="veh115" depart="50.00" departLane="383582496_0" departPos="86.58" departSpeed="0.00" departDelay="0.55" arrival="151.00" arrivalLane="671642321_1" arrivalPos="87.26" arrivalSpeed="5.33" duration="101.00" routeLength="714.13" waitingTime="0.00" waitingCount="0" stopTime="0.00" timeLoss="20.28" rerouteNo="0" devices="tripinfo_veh115" vType="passenger" speedFactor="1.06" vaporized=""/>
    <tripinfo id="veh70" depart="31.00" departLane="1136301812#0_1" departPos="11.92" departSpeed="0.00" departDelay="0.90" arrival="155.00" arrivalLane="-40236228#0_1" arrivalPos="90.81" arrivalSpeed="12.92" duration="124.00" routeLength="1036.06" waitingTime="0.00" waitingCount="0" stopTime="0.00" timeLoss="34.70" rerouteNo="0" devices="tripinfo_veh70" vType="motorcycle" speedFactor="0.94" vaporized=""/>
    <tripinfo id="veh38" depart="17.00" departLane="48797772_1" departPos="8.85" departSpeed="0.00" departDelay="0.66" arrival="161.00" arrivalLane="E37_1" arrivalPos="64.97" arrivalSpeed="13.17" duration="144.00" routeLength="1253.26" waitingTime="20.00" waitingCount="2" stopTime="0.00" timeLoss="45.49" rerouteNo="0" devices="tripinfo_veh38" vType="passenger" speedFactor="0.95" vaporized=""/>
    <tripinfo id="veh286" depart="123.00" departLane="43544624#1_1" departPos="14.30" departSpeed="0.00" departDelay="0.02" arrival="161.00" arrivalLane="43546053#2_1" arrivalPos="188.18" arrivalSpeed="10.77" duration="38.00" routeLength="329.99" waitingTime="0.00" waitingCount="0" stopTime="0.00" timeLoss="7.29" rerouteNo="0" devices="tripinfo_veh286" vType="passenger" speedFactor="0.82" vaporized=""/>
    <tripinfo id="veh23" depart="10.00" departLane="43546789#2_1" departPos="2.13" departSpeed="0.00" departDelay="0.11" arrival="163.00" arrivalLane="-647226815#0_1" arrivalPos="44.37" arrivalSpeed="11.56" duration="153.00" routeLength="1644.52" waitingTime="0.00" waitingCount="0" stopTime="0.00" timeLoss="17.91" rerouteNo="0" devices="tripinfo_veh23" vType="passenger" speedFactor="0.89" vaporized=""/>
    <tripinfo id="veh291" depart="126.00" departLane="-43544624#1_1" departPos="75.54" departSpeed="0.00" departDelay="0.87" arrival="166.00" arrivalLane="43544138#5_1" arrivalPos="39.45" arrivalSpeed="14.30" duration="40.00" routeLength="485.71" waitingTime="0.00" waitingCount="0" stopTime="0.00" timeLoss="5.84" rerouteNo="0" devices="tripinfo_veh291" vType="passenger" speedFactor="1.07" vaporized=""/>
    <tripinfo id="veh101" depart="44.00" departLane="43544001#9_1" departPos="156.89" departSpeed="0.00" departDelay="0.57" arrival="167.00" arrivalLane="43544001#3_1" arrivalPos="41.26" arrivalSpeed="11.02" duration="123.00" routeLength="1198.97" waitingTime="0.00" waitingCount="0" stopTime="0.00" timeLoss="21.66" rerouteNo="0" devices="tripinfo_veh101" vType="passenger" speedFactor="0.89" vaporized=""/>
    <tripinfo id="veh4" depart="2.00" departLane="-43546648#2_1" departPos="60.59" departSpeed="0.00" departDelay="0.28" arrival="171.00" arrivalLane="859734513_0" arrivalPos="94.32" arrivalSpeed="5.13" duration="169.00" routeLength="1752.32" waitingTime="0.00" waitingCount="0" stopTime="0.00" timeLoss="23.99" rerouteNo="0" devices="tripinfo_veh4" vType="passenger" speedFactor="1.02" vaporized=""/>
    <tripinfo id="veh31" depart="14.00" departLane="40330557#0_1" departPos="50.86" departSpeed="0.00" departDelay="0.67" arrival="171.00" arrivalLane="-1135854143_1" arrivalPos="57.62" arrivalSpeed="8.57" duration="157.00" routeLength="1665.83" waitingTime="15.00" waitingCount="1" stopTime="0.00" timeLoss="39.90" rerouteNo="0" devices="tripinfo_veh31" vType="passenger" speedFactor="1.10" vaporized=""/>
    <tripinfo id="veh188" depart="81.00" departLane="25379984#0_2" departPos="40.68" departSpeed="0.00" departDelay="0.16" arrival="174.00" arrivalLane="383582854#0_0" arrivalPos="13.10" arrivalSpeed="5.70" duration="93.00" routeLength="1009.46" waitingTime="1.00" waitingCount="1" stopTime="0.00" timeLoss="21.83" rerouteNo="0" devices="tripinfo_veh188" vType="passenger" speedFactor="1.11" vaporized=""/>
    <tripinfo id="veh74" depart="32.00" departLane="-43544179#9_1" departPos="24.54" departSpeed="0.00" departDelay="0.18" arrival="175.00" arrivalLane="996489799#1_0" arrivalPos="59.51" arrivalSpeed="4.34" duration="143.00" routeLength="1260.39" waitingTime="8.00" waitingCount="1" stopTime="0.00" timeLoss="25.35" rerouteNo="0" devices="tripinfo_veh74" vType="passenger" speedFactor="0.86" vaporized=""/>
    <tripinfo id="veh18" depart="8.00" departLane="33913538#1_1" departPos="89.44" departSpeed="0.00" departDelay="0.26" arrival="179.00" arrivalLane="-945793491#0_1" arrivalPos="34.62" arrivalSpeed="4.76" duration="171.00" routeLength="1786.49" waitingTime="0.00" waitingCount="0" stopTime="0.00" timeLoss="17.76" rerouteNo="0" devices="tripinfo_veh18" vType="passenger" speedFactor="1.01" vaporized=""/>
    <tripinfo id="veh52" depart="23.00" departLane="43544001#6_1" departPos="25.37" departSpeed="0.00" departDelay="0.64" arrival="181.00" arrivalLane="48778511_1" arrivalPos="75.86" arrivalSpeed="5.19" duration="158.00" routeLength="792.88" waitingTime="0.00" waitingCount="0" stopTime="0.00" timeLoss="14.86" rerouteNo="0" devices="tripinfo_veh52" vType="bicycle" speedFactor="1.00" vaporized=""/>
    <tripinfo id="veh102" depart="44.00" departLane="-859729931_0" departPos="97.58" departSpeed="0.00" departDelay="0.14" arrival="182.00" arrivalLane="143207979#4_1" arrivalPos="45.53" arrivalSpeed="14.23" duration="138.00" routeLength="1675.61" waitingTime="2.00" waitingCount="1" stopTime="0.00" timeLoss="18.92" rerouteNo="0" devices="tripinfo_veh102" vType="passenger" speedFactor="1.03" vaporized=""/>
    <tripinfo id="veh95" depart="41.00" departLane="-48778519_1" departPos="19.84" departSpeed="0.00" departDelay="0.15" arrival="183.00" arrivalLane="-945794111_1" arrivalPos="62.47" arrivalSpeed="8.23" duration="142.00" routeLength="1688.71" waitingTime="0.00" waitingCount="0" stopTime="0.00" timeLoss="27.73" rerouteNo="0" devices="tripinfo_veh95" vType="passenger" speedFactor="1.13" vaporized=""/>
    <tripinfo id="veh258" depart="111.00" departLane="43544624#1_1" departPos="22.83" departSpeed="0.00" departDelay="0.06" arrival="184.00" arrivalLane="-383582512#1_0" arrivalPos="18.95" arrivalSpeed="5.05" duration="73.00" routeLength="779.11" waitingTime="0.00" waitingCount="0" stopTime="0.00" timeLoss="14.77" rerouteNo="0" devices="tripinfo_veh258" vType="passenger" speedFactor="1.07" vaporized=""/>
    <tripinfo id="veh106" depart="46.00" departLane="43546688#0_1" departPos="1.25" departSpeed="0.00" departDelay="0.42" arrival="185.00" arrivalLane="353939585#2_2" arrivalPos="29.71" arrivalSpeed="13.21" duration="139.00" routeLength="1393.45" waitingTime="3.00" waitingCount="1" stopTime="0.00" timeLoss="36.33" rerouteNo="0" devices="tripinfo_veh106" vType="passenger" speedFactor="1.03" vaporized=""/>
    <tripinfo id="veh264" depart="114.00" departLane="-40299264#0_1" departPos="27.36" departSpeed="0.00" departDelay="0.48" arrival="186.00" arrivalLane="48736664#1_1" arrivalPos="36.30" arrivalSpeed="14.81" duration="72.00" routeLength="742.95" waitingTime="0.00" waitingCount="0" stopTime="0.00" timeLoss="17.37" rerouteNo="0" devices="tripinfo_veh264" vType="passenger" speedFactor="1.08" vaporized=""/>
    <tripinfo id="veh289" depart="125.00" departLane="-383582854#0_0" departPos="10.36" departSpeed="0.00" departDelay="0.73" arrival="190.00" arrivalLane="48736614#1_1" arrivalPos="221.38" arrivalSpeed="11.48" duration="65.00" routeLength="596.72" waitingTime="0.00" waitingCount="0" stopTime="0.00" timeLoss="9.50" rerouteNo="0" devices="tripinfo_veh289" vType="passenger" speedFactor="0.85" vaporized=""/>
    <tripinfo id="veh313" depart="135.00" departLane="40334245#0_1" departPos="59.44" departSpeed="0.00" departDelay="0.41" arrival="194.00" arrivalLane="-996984235_0" arrivalPos="15.63" arrivalSpeed="4.32" duration="59.00" routeLength="535.98" waitingTime="0.00" waitingCount="0" stopTime="0.00" timeLoss="11.96" rerouteNo="0" devices="tripinfo_veh313" vType="motorcycle" speedFactor="0.91" vaporized=""/>
    <tripinfo id="veh17" depart="8.00" departLane="-48736664#1_1" departPos="32.22" departSpeed="0.00" departDelay="0.69" arrival="195.00" arrivalLane="-859732802#0_0" arrivalPos="5.60" arrivalSpeed="4.43" duration="187.00" routeLength="1881.01" waitingTime="0.00" waitingCount="0" stopTime="0.00" timeLoss="23.17" rerouteNo="0" devices="tripinfo_veh17" vType="passenger" speedFactor="0.89" vaporized=""/>
    <tripinfo id="veh97" depart="42.00" departLane="859735387#0_0" departPos="0.69" departSpeed="0.00" departDelay="0.29" arrival="196.00" arrivalLane="43546105#3_1" arrivalPos="36.33" arrivalSpeed="11.94" duration="154.00" routeLength="1422.26" waitingTime="0.00" waitingCount="0" stopTime="0.00" timeLoss="28.51" rerouteNo="0" devices="tripinfo_veh97" vType="motorcycle" speedFactor="0.98" vaporized=""/>
    <tripinfo id="veh27" depart="12.00" departLane="304695350#2_1" departPos="1.67" departSpeed="0.00" departDelay="0.39" arrival="197.00" arrivalLane="859728622_0" arrivalPos="319.42" arrivalSpeed="4.30" duration="185.00" routeLength="1521.68" waitingTime="11.00" waitingCount="1" stopTime="0.00" timeLoss="35.82" rerouteNo="0" devices="tripinfo_veh27" vType="passenger" speedFactor="0.99" vaporized=""/>
    <tripinfo id="veh85" depart="37.00" departLane="-48778510#1_1" departPos="20.06" departSpeed="0.00" departDelay="0.45" arrival="197.00" arrivalLane="40266908#1_1" arrivalPos="55.60" arrivalSpeed="12.70" duration="160.00" routeLength="1648.04" waitingTime="3.00" waitingCount="1" stopTime="0.00" timeLoss="33.84" rerouteNo="0" devices="tripinfo_veh85" vType="passenger" speedFactor="0.98" vaporized=""/>
    <tripinfo id="veh165" depart="71.00" departLane="-48778478#1_1" departPos="37.65" departSpeed="0.00" departDelay="0.05" arrival="198.00" arrivalLane="48778493#0_1" arrivalPos="6.51" arrivalSpeed="7.12" duration="127.00" routeLength="1248.23" waitingTime="5.00" waitingCount="1" stopTime="0.00" timeLoss="34.38" rerouteNo="0" devices="tripinfo_veh165" vType="passenger" speedFactor="1.03" vaporized=""/>
    <tripinfo id="veh100" depart="43.00" departLane="-354252043_1" departPos="31.65" departSpeed="0.00" departDelay="0.00" arrival="203.00" arrivalLane="48736647#1_1" arrivalPos="90.38" arrivalSpeed="12.95" duration="160.00" routeLength="1609.59" waitingTime="8.00" waitingCount="1" stopTime="0.00" timeLoss="42.72" rerouteNo="0" devices="tripinfo_veh100" vType="passenger" speedFactor="1.02" vaporized=""/>
    <tripinfo id="veh238" depart="103.00" departLane="-48736639#0_1" departPos="43.97" departSpeed="0.00" departDelay="0.66" arrival="203.00" arrivalLane="-48778454#1_1" arrivalPos="94.52" arrivalSpeed="12.29" duration="100.00" routeLength="811.58" waitingTime="9.00" waitingCount="1" stopTime="0.00" timeLoss="34.16" rerouteNo="0" devices="tripinfo_veh238" vType="passenger" speedFactor="0.97" vaporized=""/>
    <tripinfo id="veh43" depart="19.00" departLane="48778493#0_1" departPos="2.54" departSpeed="0.00" departDelay="0.51" arrival="204.00" arrivalLane="-383582514_1" arrivalPos="205.28" arrivalSpeed="5.84" duration="185.00" routeLength="1710.00" waitingTime="13.00" waitingCount="1" stopTime="0.00" timeLoss="43.95" rerouteNo="0" devices="tripinfo_veh43" vType="motorcycle" speedFactor="1.00" vaporized=""/>
    <tripinfo id="veh65" depart="28.00" departLane="-250295384_1" departPos="0.11" departSpeed="0.00" departDelay="0.05" arrival="204.00" arrivalLane="-43544184#1_1" arrivalPos="0.22" arrivalSpeed="9.39" duration="176.00" routeLength="1982.02" waitingTime="0.00" waitingCount="0" stopTime="0.00" timeLoss="30.88" rerouteNo="0" devices="tripinfo_veh65" vType="passenger" speedFactor="1.02" vaporized=""/>
    <tripinfo id="veh208" depart="90.00" departLane="1135856957_0" departPos="16.80" departSpeed="0.00" departDelay="0.56" arrival="204.00" arrivalLane="859732801#1_1" arrivalPos="25.05" arrivalSpeed="16.70" duration="114.00" routeLength="1281.60" waitingTime="0.00" waitingCount="0" stopTime="0.00" timeLoss="32.86" rerouteNo="0" devices="tripinfo_veh208" vType="passenger" speedFactor="1.26" vaporized=""/>
    <tripinfo id="veh172" depart="74.00" departLane="-48736666#1_1" departPos="5.08" departSpeed="0.00" departDelay="0.04" arrival="205.00" arrivalLane="48778461#1_1" arrivalPos="24.78" arrivalSpeed="12.07" duration="131.00" routeLength="1323.32" waitingTime="0.00" waitingCount="0" stopTime="0.00" timeLoss="33.57" rerouteNo="0" devices="tripinfo_veh172" vType="delivery" speedFactor="1.03" vaporized=""/>
    <tripinfo id="veh92" depart="40.00" departLane="43546648#6_1" departPos="109.05" departSpeed="0.00" departDelay="0.44" arrival="206.00" arrivalLane="-43573547#10_1" arrivalPos="81.82" arrivalSpeed="14.32" duration="166.00" routeLength="1149.52" waitingTime="68.00" waitingCount="1" stopTime="0.00" timeLoss="87.47" rerouteNo="0" devices="tripinfo_veh92" vType="passenger" speedFactor="1.10" vaporized=""/>
    <tripinfo id="veh141" depart="61.00" departLane="43546793_1" departPos="190.57" departSpeed="0.00" departDelay="0.37" arrival="206.00" arrivalLane="-530103972_1" arrivalPos="61.24" arrivalSpeed="2.61" duration="145.00" routeLength="1093.78" waitingTime="25.00" waitingCount="1" stopTime="0.00" timeLoss="52.28" rerouteNo="0" devices="tripinfo_veh141" vType="passenger" speedFactor="1.06" vaporized=""/>
    <tripinfo id="veh220" depart="95.00" departLane="-43546688#2_1" departPos="26.66" departSpeed="0.00" departDelay="0.40" arrival="207.00" arrivalLane="48778443#0_1" arrivalPos="2.86" arrivalSpeed="4.89" duration="112.00" routeLength="998.17" waitingTime="3.00" waitingCount="1" stopTime="0.00" timeLoss="30.14" rerouteNo="0" devices="tripinfo_veh220" vType="passenger" speedFactor="0.94" vaporized=""/>
    <tripinfo id="veh116" depart="50.00" departLane="383582500_0" departPos="110.50" departSpeed="0.00" departDelay="0.12" arrival="208.00" arrivalLane="43544624#3_1" arrivalPos="179.18" arrivalSpeed="14.35" duration="158.00" routeLength="1724.14" waitingTime="1.00" waitingCount="1" stopTime="0.00" timeLoss="26.57" rerouteNo="0" devices="tripinfo_veh116" vType="passenger" speedFactor="1.11" vaporized=""/>
    <tripinfo id="veh129" depart="56.00" departLane="33913538#6_1" departPos="12.90" departSpeed="0.00" departDelay="0.53" arrival="209.00" arrivalLane="-256684296_0" arrivalPos="80.07" arrivalSpeed="2.24" duration="153.00" routeLength="1290.73" waitingTime="0.00" waitingCount="0" stopTime="0.00" timeLoss="23.12" rerouteNo="0" devices="tripinfo_veh129" vType="passenger" speedFactor="0.91" vaporized=""/>
    <tripinfo id="veh214" depart="93.00" departLane="-40236259_1" departPos="106.27" departSpeed="0.00" departDelay="0.98" arrival="210.00" arrivalLane="-1205541342_1" arrivalPos="22.37" arrivalSpeed="5.65" duration="117.00" routeLength="1400.42" waitingTime="0.00" waitingCount="0" stopTime="0.00" timeLoss="17.18" rerouteNo="0" devices="tripinfo_veh214" vType="passenger" speedFactor="1.12" vaporized=""/>
    <tripinfo id="veh164" depart="71.00" departLane="354259933#2_1" departPos="70.14" departSpeed="0.00" departDelay="0.48" arrival="211.00" arrivalLane="222605086_1" arrivalPos="27.07" arrivalSpeed="4.19" duration="140.00" routeLength="1091.02" waitingTime="23.00" waitingCount="1" stopTime="0.00" timeLoss="41.39" rerouteNo="0" devices="tripinfo_veh164" vType="passenger" speedFactor="0.87" vaporized=""/>
    <tripinfo id="veh299" depart="129.00" departLane="-859735387#1_0" departPos="16.85" departSpeed="0.00" departDelay="0.43" arrival="211.00" arrivalLane="-222605089#0_1" arrivalPos="43.46" arrivalSpeed="12.76" duration="82.00" routeLength="812.56" waitingTime="0.00" waitingCount="0" stopTime="0.00" timeLoss="11.21" rerouteNo="0" devices="tripinfo_veh299" vType="delivery" speedFactor="1.01" vaporized=""/>
    <tripinfo id="veh57" depart="25.00" departLane="-48778478#2_1" departPos="3.88" departSpeed="0.00" departDelay="0.49" arrival="214.00" arrivalLane="-43546648#5_1" arrivalPos="18.50" arrivalSpeed="14.12" duration="189.00" routeLength="1485.01" waitingTime="43.00" waitingCount="2" stopTime="0.00" timeLoss="78.34" rerouteNo="0" devices="tripinfo_veh57" vType="passenger" speedFactor="1.02" vaporized=""/>
    <tripinfo id="veh147" depart="64.00" departLane="383582497_0" departPos="10.40" departSpeed="0.00" departDelay="0.79" arrival="217.00" arrivalLane="48736612#1_1" arrivalPos="56.12" arrivalSpeed="13.29" duration="153.00" routeLength="1596.15" waitingTime="1.00" waitingCount="1" stopTime="0.00" timeLoss="26.16" rerouteNo="0" devices="tripinfo_veh147" vType="motorcycle" speedFactor="0.97" vaporized=""/>
    <tripinfo id="veh230" depart="99.00" departLane="-222605087#1_1" departPos="20.81" departSpeed="0.00" departDelay="0.10" arrival="220.00" arrivalLane="-33913538#3_2" arrivalPos="4.38" arrivalSpeed="12.37" duration="121.00" routeLength="1405.58" waitingTime="0.00" waitingCount="0" stopTime="0.00" timeLoss="10.86" rerouteNo="0" devices="tripinfo_veh230" vType="passenger" speedFactor="0.97" vaporized=""/>
    <tripinfo id="veh80" depart="36.00" departLane="48736650#1_1" departPos="2.94" departSpeed="0.00" departDelay="1.60" arrival="224.00" arrivalLane="48778503#1_1" arrivalPos="56.23" arrivalSpeed="14.40" duration="188.00" routeLength="2034.03" waitingTime="12.00" waitingCount="3" stopTime="0.00" timeLoss="48.12" rerouteNo="0" devices="tripinfo_veh80" vType="passenger" speedFactor="1.06" vaporized=""/>
    <tripinfo id="veh330" depart="142.00" departLane="48778457#0_1" departPos="1.24" departSpeed="0.00" departDelay="0.10" arrival="227.00" arrivalLane="43546449#0_1" arrivalPos="86.89" arrivalSpeed="13.04" duration="85.00" routeLength="660.51" waitingTime="4.00" waitingCount="1" stopTime="0.00" timeLoss="32.14" rerouteNo="0" devices="tripinfo_veh330" vType="passenger" speedFactor="1.00" vaporized=""/>
    <tripinfo id="veh145" depart="63.00" departLane="-1136289992_1" departPos="8.55" departSpeed="0.00" departDelay="0.65" arrival="228.00" arrivalLane="-40266620_1" arrivalPos="32.50" arrivalSpeed="13.59" duration="165.00" routeLength="1776.82" waitingTime="0.00" waitingCount="0" stopTime="0.00" timeLoss="29.79" rerouteNo="0" devices="tripinfo_veh145" vType="motorcycle" speedFactor="0.98" vaporized=""/>
    <tripinfo id="veh301" depart="130.00" departLane="-E34_1" departPos="42.93" departSpeed="0.00" departDelay="0.57" arrival="229.00" arrivalLane="-647755347#0_1" arrivalPos="70.01" arrivalSpeed="13.68" duration="99.00" routeLength="1193.10" waitingTime="1.00" waitingCount="1" stopTime="0.00" timeLoss="16.88" rerouteNo="0" devices="tripinfo_veh301" vType="motorcycle" speedFactor="1.07" vaporized=""/>