<?xml version="1.0" encoding="UTF-8"?>

<!-- generated on 2025-06-12 12:34:39 by Eclipse SUMO sumo Version 1.22.0
<sumoConfiguration xmlns:xsi="http://www.w3.org/2001/XMLSchema-instance" xsi:noNamespaceSchemaLocation="http://sumo.dlr.de/xsd/sumoConfiguration.xsd">

    <input>
        <net-file value="osm.net.xml"/>
        <route-files value="full.rou.xml, ped.rou.xml, truck.rou.xml"/>
        <additional-files value="osm.poly.xml, vtypes.xml"/>
    </input>

    <output>
        <summary-output value="summary.xml"/>
        <tripinfo-output value="E:\licenta\oras-mediu\2025-06-05-11-45-23\baseline_outputs\tripinfo_baseline_ep24.xml"/>
    </output>

    <processing>
        <ignore-route-errors value="true"/>
        <tls.actuated.jam-threshold value="30"/>
    </processing>

    <routing>
        <device.rerouting.adaptation-steps value="18"/>
        <device.rerouting.adaptation-interval value="10"/>
    </routing>

    <report>
        <verbose value="true"/>
        <duration-log.statistics value="true"/>
        <no-step-log value="true"/>
    </report>

    <traci_server>
        <remote-port value="64581"/>
    </traci_server>

    <gui_only>
        <gui-settings-file value="osm.view.xml"/>
    </gui_only>

</sumoConfiguration>
-->

<tripinfos xmlns:xsi="http://www.w3.org/2001/XMLSchema-instance" xsi:noNamespaceSchemaLocation="http://sumo.dlr.de/xsd/tripinfo_file.xsd">
    <tripinfo id="veh16" depart="10.00" departLane="-48736612#1_1" departPos="49.81" departSpeed="0.00" departDelay="0.24" arrival="69.00" arrivalLane="48736621#1_1" arrivalPos="24.45" arrivalSpeed="13.68" duration="59.00" routeLength="525.39" waitingTime="0.00" waitingCount="0" stopTime="0.00" timeLoss="17.96" rerouteNo="0" devices="tripinfo_veh16" vType="passenger" speedFactor="1.02" vaporized=""/>
    <tripinfo id="veh63" depart="39.00" departLane="-40236203#0_1" departPos="75.50" departSpeed="0.00" departDelay="0.57" arrival="79.00" arrivalLane="-859732802#0_0" arrivalPos="5.60" arrivalSpeed="4.27" duration="40.00" routeLength="331.82" waitingTime="0.00" waitingCount="0" stopTime="0.00" timeLoss="7.49" rerouteNo="0" devices="tripinfo_veh63" vType="passenger" speedFactor="0.92" vaporized=""/>
    <tripinfo id="veh117" depart="72.00" departLane="-48736617#0_1" departPos="20.95" departSpeed="0.00" departDelay="0.63" arrival="87.00" arrivalLane="-48736632#1_1" arrivalPos="49.82" arrivalSpeed="14.71" duration="15.00" routeLength="107.09" waitingTime="0.00" waitingCount="0" stopTime="0.00" timeLoss="5.91" rerouteNo="0" devices="tripinfo_veh117" vType="passenger" speedFactor="1.11" vaporized=""/>
    <tripinfo id="veh70" depart="43.00" departLane="353939570#1_2" departPos="79.54" departSpeed="0.00" departDelay="0.30" arrival="97.00" arrivalLane="40330557#4_1" arrivalPos="4.47" arrivalSpeed="12.99" duration="54.00" routeLength="635.75" waitingTime="0.00" waitingCount="0" stopTime="0.00" timeLoss="7.40" rerouteNo="0" devices="tripinfo_veh70" vType="passenger" speedFactor="1.01" vaporized=""/>
    <tripinfo id="veh66" depart="41.00" departLane="-578560104#4_1" departPos="12.02" departSpeed="0.00" departDelay="0.74" arrival="99.00" arrivalLane="273835686#0_1" arrivalPos="75.56" arrivalSpeed="13.30" duration="58.00" routeLength="651.58" waitingTime="0.00" waitingCount="0" stopTime="0.00" timeLoss="9.75" rerouteNo="0" devices="tripinfo_veh66" vType="passenger" speedFactor="1.02" vaporized=""/>
    <tripinfo id="veh87" depart="54.00" departLane="945793490#4_1" departPos="48.29" departSpeed="0.00" departDelay="0.93" arrival="106.00" arrivalLane="-1250915721#0_1" arrivalPos="14.93" arrivalSpeed="4.16" duration="52.00" routeLength="242.80" waitingTime="0.00" waitingCount="0" stopTime="0.00" timeLoss="7.06" rerouteNo="0" devices="tripinfo_veh87" vType="passenger" speedFactor="0.98" vaporized=""/>
    <tripinfo id="veh4" depart="3.00" departLane="48778457#0_1" departPos="0.16" departSpeed="0.00" departDelay="0.56" arrival="111.00" arrivalLane="40236144#1_1" arrivalPos="52.82" arrivalSpeed="13.69" duration="108.00" routeLength="1058.86" waitingTime="0.00" waitingCount="0" stopTime="0.00" timeLoss="25.19" rerouteNo="0" devices="tripinfo_veh4" vType="passenger" speedFactor="1.01" vaporized=""/>
    <personinfo id="ped11" depart="55.00" type="DEFAULT_PEDTYPE" speedFactor="0.86" duration="61.00" waitingTime="0.00" timeLoss="6.29" traveltime="61.00">
        <walk depart="55.00" departPos="0.00" arrival="116.00" arrivalPos="50.96" duration="61.00" routeLength="65.37" timeLoss="6.29" maxSpeed="1.19"/>
    </personinfo>
    <tripinfo id="veh99" depart="61.00" departLane="-43544001#15_1" departPos="0.79" departSpeed="0.00" departDelay="0.61" arrival="125.00" arrivalLane="-43544138#0_1" arrivalPos="44.10" arrivalSpeed="12.34" duration="64.00" routeLength="678.69" waitingTime="0.00" waitingCount="0" stopTime="0.00" timeLoss="11.06" rerouteNo="0" devices="tripinfo_veh99" vType="motorcycle" speedFactor="0.94" vaporized=""/>
    <tripinfo id="veh57" depart="35.00" departLane="-43573547#6_1" departPos="51.72" departSpeed="0.00" departDelay="0.23" arrival="127.00" arrivalLane="-48778508#0_1" arrivalPos="11.34" arrivalSpeed="12.08" duration="92.00" routeLength="967.97" waitingTime="0.00" waitingCount="0" stopTime="0.00" timeLoss="16.21" rerouteNo="0" devices="tripinfo_veh57" vType="passenger" speedFactor="0.95" vaporized=""/>
    <tripinfo id="veh56" depart="35.00" departLane="-43544197#1_1" departPos="8.01" departSpeed="0.00" departDelay="0.84" arrival="128.00" arrivalLane="-48778524#0_1" arrivalPos="98.21" arrivalSpeed="12.10" duration="93.00" routeLength="934.02" waitingTime="0.00" waitingCount="0" stopTime="0.00" timeLoss="14.56" rerouteNo="0" devices="tripinfo_veh56" vType="passenger" speedFactor="0.91" vaporized=""/>
    <tripinfo id="veh22" depart="14.00" departLane="-43546057_1" departPos="37.55" departSpeed="0.00" departDelay="0.58" arrival="129.00" arrivalLane="43573547#7_1" arrivalPos="83.95" arrivalSpeed="14.48" duration="115.00" routeLength="1307.03" waitingTime="0.00" waitingCount="0" stopTime="0.00" timeLoss="29.04" rerouteNo="0" devices="tripinfo_veh22" vType="passenger" speedFactor="1.13" vaporized=""/>
    <tripinfo id="veh82" depart="51.00" departLane="383582854#2_0" departPos="0.23" departSpeed="0.00" departDelay="0.98" arrival="130.00" arrivalLane="-143207982#5_1" arrivalPos="37.52" arrivalSpeed="14.41" duration="79.00" routeLength="797.03" waitingTime="0.00" waitingCount="0" stopTime="0.00" timeLoss="16.24" rerouteNo="0" devices="tripinfo_veh82" vType="passenger" speedFactor="1.06" vaporized=""/>
    <personinfo id="ped20" depart="100.00" type="DEFAULT_PEDTYPE" speedFactor="1.07" duration="31.00" waitingTime="0.00" timeLoss="2.71" traveltime="31.00">
        <walk depart="100.00" departPos="0.00" arrival="131.00" arrivalPos="0.93" duration="31.00" routeLength="42.06" timeLoss="2.71" maxSpeed="1.49"/>
    </personinfo>
    <tripinfo id="veh28" depart="18.00" departLane="-859732801#0_1" departPos="9.67" departSpeed="0.00" departDelay="0.92" arrival="133.00" arrivalLane="-945793485#0_1" arrivalPos="25.01" arrivalSpeed="12.72" duration="115.00" routeLength="1004.94" waitingTime="0.00" waitingCount="0" stopTime="0.00" timeLoss="28.51" rerouteNo="0" devices="tripinfo_veh28" vType="passenger" speedFactor="0.97" vaporized=""/>
    <tripinfo id="veh61" depart="38.00" departLane="-43573547#10_1" departPos="15.59" departSpeed="0.00" departDelay="0.79" arrival="134.00" arrivalLane="354252039#1_1" arrivalPos="19.16" arrivalSpeed="14.72" duration="96.00" routeLength="1165.45" waitingTime="0.00" waitingCount="0" stopTime="0.00" timeLoss="18.00" rerouteNo="0" devices="tripinfo_veh61" vType="passenger" speedFactor="1.12" vaporized=""/>
    <tripinfo id="veh20" depart="13.00" departLane="-492965073#6_2" departPos="0.24" departSpeed="0.00" departDelay="0.80" arrival="136.00" arrivalLane="40306162#1_1" arrivalPos="38.73" arrivalSpeed="11.37" duration="123.00" routeLength="1028.85" waitingTime="0.00" waitingCount="0" stopTime="0.00" timeLoss="27.71" rerouteNo="0" devices="tripinfo_veh20" vType="passenger" speedFactor="0.87" vaporized=""/>
    <tripinfo id="veh140" depart="86.00" departLane="-43547017#1_1" departPos="10.29" departSpeed="0.00" departDelay="0.60" arrival="138.00" arrivalLane="43547017#2_1" arrivalPos="56.55" arrivalSpeed="13.66" duration="52.00" routeLength="528.84" waitingTime="0.00" waitingCount="0" stopTime="0.00" timeLoss="12.23" rerouteNo="0" devices="tripinfo_veh140" vType="passenger" speedFactor="1.06" vaporized=""/>
    <personinfo id="ped0" depart="0.00" type="DEFAULT_PEDTYPE" speedFactor="0.84" duration="142.00" waitingTime="0.00" timeLoss="14.93" traveltime="142.00">
        <walk depart="0.00" departPos="0.00" arrival="142.00" arrivalPos="53.27" duration="142.00" routeLength="148.11" timeLoss="14.93" maxSpeed="1.17"/>
    </personinfo>
    <tripinfo id="veh62" depart="38.00" departLane="-43546064#2_1" departPos="101.03" departSpeed="0.00" departDelay="0.18" arrival="143.00" arrivalLane="-222608881#0_1" arrivalPos="169.24" arrivalSpeed="14.02" duration="105.00" routeLength="1117.13" waitingTime="0.00" waitingCount="0" stopTime="0.00" timeLoss="22.78" rerouteNo="0" devices="tripinfo_veh62" vType="passenger" speedFactor="1.03" vaporized=""/>
    <tripinfo id="veh78" depart="48.00" departLane="-40236220#1_1" departPos="17.93" departSpeed="0.00" departDelay="0.42" arrival="151.00" arrivalLane="-250295383#6_1" arrivalPos="25.71" arrivalSpeed="11.61" duration="103.00" routeLength="929.42" waitingTime="0.00" waitingCount="0" stopTime="0.00" timeLoss="33.67" rerouteNo="0" devices="tripinfo_veh78" vType="passenger" speedFactor="1.14" vaporized=""/>
    <tripinfo id="veh101" depart="62.00" departLane="-43546039#1_1" departPos="1.20" departSpeed="0.00" departDelay="0.39" arrival="152.00" arrivalLane="-43546935#3_1" arrivalPos="13.61" arrivalSpeed="9.79" duration="90.00" routeLength="939.61" waitingTime="0.00" waitingCount="0" stopTime="0.00" timeLoss="19.29" rerouteNo="0" devices="tripinfo_veh101" vType="passenger" speedFactor="1.02" vaporized=""/>
    <tripinfo id="veh135" depart="83.00" departLane="48778508#3_1" departPos="1.76" departSpeed="0.00" departDelay="0.65" arrival="153.00" arrivalLane="-48778504_1" arrivalPos="189.55" arrivalSpeed="12.16" duration="70.00" routeLength="641.26" waitingTime="0.00" waitingCount="0" stopTime="0.00" timeLoss="15.37" rerouteNo="0" devices="tripinfo_veh135" vType="motorcycle" speedFactor="0.91" vaporized=""/>
    <tripinfo id="veh114" depart="70.00" departLane="48778489#0_2" departPos="193.55" departSpeed="0.00" departDelay="0.46" arrival="155.00" arrivalLane="48778472_1" arrivalPos="49.54" arrivalSpeed="12.65" duration="85.00" routeLength="928.40" waitingTime="0.00" waitingCount="0" stopTime="0.00" timeLoss="15.14" rerouteNo="0" devices="tripinfo_veh114" vType="emergency" speedFactor="1.00" vaporized=""/>
    <tripinfo id="veh29" depart="18.00" departLane="-48736648#0_1" departPos="0.11" departSpeed="0.00" departDelay="0.31" arrival="156.00" arrivalLane="43546570#1_1" arrivalPos="76.67" arrivalSpeed="11.43" duration="138.00" routeLength="1432.67" waitingTime="3.00" waitingCount="1" stopTime="0.00" timeLoss="31.20" rerouteNo="0" devices="tripinfo_veh29" vType="motorcycle" speedFactor="1.02" vaporized=""/>
    <tripinfo id="veh96" depart="59.00" departLane="-43547017#2_1" departPos="7.25" departSpeed="0.00" departDelay="0.44" arrival="156.00" arrivalLane="-43546064#1_1" arrivalPos="98.05" arrivalSpeed="15.27" duration="97.00" routeLength="1147.19" waitingTime="0.00" waitingCount="0" stopTime="0.00" timeLoss="20.53" rerouteNo="0" devices="tripinfo_veh96" vType="passenger" speedFactor="1.13" vaporized=""/>
    <tripinfo id="veh64" depart="40.00" departLane="1001108554_1" departPos="2.65" departSpeed="0.00" departDelay="0.96" arrival="159.00" arrivalLane="-48778508#4_1" arrivalPos="24.74" arrivalSpeed="14.77" duration="119.00" routeLength="1125.65" waitingTime="1.00" waitingCount="1" stopTime="0.00" timeLoss="21.37" rerouteNo="0" devices="tripinfo_veh64" vType="passenger" speedFactor="1.09" vaporized=""/>
    <tripinfo id="veh112" depart="69.00" departLane="48778441#0_1" departPos="34.19" departSpeed="0.00" departDelay="0.68" arrival="159.00" arrivalLane="1136301814#0_1" arrivalPos="40.78" arrivalSpeed="12.95" duration="90.00" routeLength="929.72" waitingTime="0.00" waitingCount="0" stopTime="0.00" timeLoss="20.33" rerouteNo="0" devices="tripinfo_veh112" vType="passenger" speedFactor="1.01" vaporized=""/>
    <tripinfo id="veh176" depart="108.00" departLane="-250295380#1_1" departPos="51.03" departSpeed="0.00" departDelay="0.64" arrival="159.00" arrivalLane="43546789#2_1" arrivalPos="71.56" arrivalSpeed="12.18" duration="51.00" routeLength="494.90" waitingTime="0.00" waitingCount="0" stopTime="0.00" timeLoss="11.27" rerouteNo="0" devices="tripinfo_veh176" vType="passenger" speedFactor="0.96" vaporized=""/>
    <tripinfo id="veh42" depart="26.00" departLane="43546460#7_1" departPos="67.13" departSpeed="0.00" departDelay="0.38" arrival="160.00" arrivalLane="-43544624#0_1" arrivalPos="295.18" arrivalSpeed="15.75" duration="134.00" routeLength="1808.41" waitingTime="0.00" waitingCount="0" stopTime="0.00" timeLoss="20.22" rerouteNo="0" devices="tripinfo_veh42" vType="passenger" speedFactor="1.17" vaporized=""/>
    <tripinfo id="veh1" depart="1.00" departLane="-43546039#1_1" departPos="69.67" departSpeed="0.00" departDelay="0.39" arrival="162.00" arrivalLane="-33909936#2_1" arrivalPos="60.97" arrivalSpeed="12.88" duration="161.00" routeLength="1786.58" waitingTime="0.00" waitingCount="0" stopTime="0.00" timeLoss="25.09" rerouteNo="0" devices="tripinfo_veh1" vType="motorcycle" speedFactor="0.98" vaporized=""/>
    <tripinfo id="veh44" depart="27.00" departLane="-222605087#5_1" departPos="46.87" departSpeed="0.00" departDelay="0.16" arrival="162.00" arrivalLane="48778486_1" arrivalPos="28.07" arrivalSpeed="12.68" duration="135.00" routeLength="966.03" waitingTime="1.00" waitingCount="1" stopTime="0.00" timeLoss="34.67" rerouteNo="0" devices="tripinfo_veh44" vType="motorcycle" speedFactor="1.00" vaporized=""/>
    <tripinfo id="veh9" depart="6.00" departLane="-859728207_0" departPos="8.68" departSpeed="0.00" departDelay="0.51" arrival="164.00" arrivalLane="-354252043_1" arrivalPos="59.78" arrivalSpeed="15.31" duration="158.00" routeLength="1896.88" waitingTime="0.00" waitingCount="0" stopTime="0.00" timeLoss="21.14" rerouteNo="0" devices="tripinfo_veh9" vType="passenger" speedFactor="1.12" vaporized=""/>
    <tripinfo id="veh142" depart="87.00" departLane="48797770_1" departPos="18.50" departSpeed="0.00" departDelay="0.38" arrival="165.00" arrivalLane="40299283_1" arrivalPos="50.92" arrivalSpeed="13.34" duration="78.00" routeLength="850.75" waitingTime="0.00" waitingCount="0" stopTime="0.00" timeLoss="13.75" rerouteNo="0" devices="tripinfo_veh142" vType="motorcycle" speedFactor="1.02" vaporized=""/>
    <tripinfo id="veh98" depart="60.00" departLane="1136283379#0_1" departPos="91.78" departSpeed="0.00" departDelay="0.22" arrival="167.00" arrivalLane="-984521612#0_0" arrivalPos="12.48" arrivalSpeed="4.33" duration="107.00" routeLength="895.55" waitingTime="3.00" waitingCount="1" stopTime="0.00" timeLoss="28.41" rerouteNo="0" devices="tripinfo_veh98" vType="motorcycle" speedFactor="0.98" vaporized=""/>
    <tripinfo id="veh147" depart="90.00" departLane="353939585#1_2" departPos="13.47" departSpeed="0.00" departDelay="0.33" arrival="167.00" arrivalLane="43573547#5_1" arrivalPos="56.54" arrivalSpeed="12.06" duration="77.00" routeLength="787.06" waitingTime="3.00" waitingCount="1" stopTime="0.00" timeLoss="17.23" rerouteNo="0" devices="tripinfo_veh147" vType="motorcycle" speedFactor="0.97" vaporized=""/>
    <tripinfo id="veh169" depart="104.00" departLane="-40236153#0_1" departPos="15.73" departSpeed="0.00" departDelay="0.91" arrival="171.00" arrivalLane="-996984134_0" arrivalPos="80.94" arrivalSpeed="3.86" duration="67.00" routeLength="599.53" waitingTime="0.00" waitingCount="0" stopTime="0.00" timeLoss="13.37" rerouteNo="0" devices="tripinfo_veh169" vType="motorcycle" speedFactor="1.00" vaporized=""/>
    <tripinfo id="veh148" depart="91.00" departLane="492965073#9_2" departPos="8.85" departSpeed="0.00" departDelay="0.72" arrival="173.00" arrivalLane="1135854210_1" arrivalPos="13.11" arrivalSpeed="4.81" duration="82.00" routeLength="826.20" waitingTime="0.00" waitingCount="0" stopTime="0.00" timeLoss="17.65" rerouteNo="0" devices="tripinfo_veh148" vType="passenger" speedFactor="1.03" vaporized=""/>
    <personinfo id="ped13" depart="65.00" type="DEFAULT_PEDTYPE" speedFactor="0.99" duration="112.00" waitingTime="0.00" timeLoss="14.52" traveltime="112.00">
        <walk depart="65.00" departPos="0.00" arrival="177.00" arrivalPos="2.50" duration="112.00" routeLength="134.47" timeLoss="14.52" maxSpeed="1.38"/>
    </personinfo>
    <tripinfo id="veh124" depart="76.00" departLane="-48778496_1" departPos="12.39" departSpeed="0.00" departDelay="0.36" arrival="177.00" arrivalLane="-48778500#1_1" arrivalPos="81.60" arrivalSpeed="11.85" duration="101.00" routeLength="826.02" waitingTime="2.00" waitingCount="1" stopTime="0.00" timeLoss="26.62" rerouteNo="0" devices="tripinfo_veh124" vType="passenger" speedFactor="0.94" vaporized=""/>
    <tripinfo id="veh110" depart="68.00" departLane="-1136301818_1" departPos="7.45" departSpeed="0.00" departDelay="0.90" arrival="179.00" arrivalLane="-43546789#2_1" arrivalPos="71.57" arrivalSpeed="14.03" duration="111.00" routeLength="991.72" waitingTime="0.00" waitingCount="0" stopTime="0.00" timeLoss="34.20" rerouteNo="0" devices="tripinfo_veh110" vType="passenger" speedFactor="1.04" vaporized=""/>
    <tripinfo id="veh3" depart="2.00" departLane="-43544184#3_1" departPos="36.45" departSpeed="0.00" departDelay="0.17" arrival="181.00" arrivalLane="-40330575#1_1" arrivalPos="3.62" arrivalSpeed="11.07" duration="179.00" routeLength="1933.26" waitingTime="0.00" waitingCount="0" stopTime="0.00" timeLoss="18.80" rerouteNo="0" devices="tripinfo_veh3" vType="passenger" speedFactor="0.89" vaporized=""/>
    <tripinfo id="veh195" depart="119.00" departLane="40334244#3_1" departPos="95.68" departSpeed="0.00" departDelay="0.05" arrival="181.00" arrivalLane="-671606411_1" arrivalPos="183.61" arrivalSpeed="14.10" duration="62.00" routeLength="625.39" waitingTime="0.00" waitingCount="0" stopTime="0.00" timeLoss="19.61" rerouteNo="0" devices="tripinfo_veh195" vType="passenger" speedFactor="1.10" vaporized=""/>
    <tripinfo id="veh186" depart="114.00" departLane="-40304754#2_1" departPos="26.43" departSpeed="0.00" departDelay="0.54" arrival="184.00" arrivalLane="43546064#0_1" arrivalPos="168.39" arrivalSpeed="11.64" duration="70.00" routeLength="777.11" waitingTime="0.00" waitingCount="0" stopTime="0.00" timeLoss="8.69" rerouteNo="0" devices="tripinfo_veh186" vType="delivery" speedFactor="0.93" vaporized=""/>
    <tripinfo id="veh52" depart="32.00" departLane="40299264#1_1" departPos="55.02" departSpeed="0.00" departDelay="0.28" arrival="185.00" arrivalLane="-48736637_1" arrivalPos="17.08" arrivalSpeed="5.06" duration="153.00" routeLength="724.40" waitingTime="6.00" waitingCount="1" stopTime="0.00" timeLoss="22.19" rerouteNo="0" devices="tripinfo_veh52" vType="bicycle" speedFactor="1.00" vaporized=""/>
    <tripinfo id="veh122" depart="75.00" departLane="222605084#0_1" departPos="0.04" departSpeed="0.00" departDelay="0.58" arrival="187.00" arrivalLane="48778494#0_1" arrivalPos="50.01" arrivalSpeed="13.41" duration="112.00" routeLength="824.54" waitingTime="0.00" waitingCount="0" stopTime="0.00" timeLoss="19.04" rerouteNo="0" devices="tripinfo_veh122" vType="passenger" speedFactor="0.97" vaporized=""/>
    <tripinfo id="veh77" depart="47.00" departLane="33913538#0_1" departPos="8.69" departSpeed="0.00" departDelay="0.03" arrival="189.00" arrivalLane="258551297#1_0" arrivalPos="135.94" arrivalSpeed="4.96" duration="142.00" routeLength="1298.68" waitingTime="2.00" waitingCount="1" stopTime="0.00" timeLoss="16.85" rerouteNo="0" devices="tripinfo_veh77" vType="passenger" speedFactor="0.91" vaporized=""/>
    <tripinfo id="veh175" depart="107.00" departLane="-578560104#5_1" departPos="65.62" departSpeed="0.00" departDelay="0.25" arrival="195.00" arrivalLane="40236220#0_1" arrivalPos="34.75" arrivalSpeed="15.06" duration="88.00" routeLength="1017.83" waitingTime="0.00" waitingCount="0" stopTime="0.00" timeLoss="18.16" rerouteNo="0" devices="tripinfo_veh175" vType="motorcycle" speedFactor="1.10" vaporized=""/>
    <tripinfo id="veh111" depart="68.00" departLane="1136283381_1" departPos="2.28" departSpeed="0.00" departDelay="0.29" arrival="196.00" arrivalLane="-48778441#0_1" arrivalPos="36.99" arrivalSpeed="13.38" duration="128.00" routeLength="1251.84" waitingTime="0.00" waitingCount="0" stopTime="0.00" timeLoss="24.57" rerouteNo="0" devices="tripinfo_veh111" vType="motorcycle" speedFactor="1.04" vaporized=""/>
    <tripinfo id="veh182" depart="112.00" departLane="-1250915722#2_1" departPos="1.71" departSpeed="0.00" departDelay="0.98" arrival="196.00" arrivalLane="40330557#0_1" arrivalPos="52.98" arrivalSpeed="12.77" duration="84.00" routeLength="404.28" waitingTime="12.00" waitingCount="1" stopTime="0.00" timeLoss="26.00" rerouteNo="0" devices="tripinfo_veh182" vType="passenger" speedFactor="0.92" vaporized=""/>
    <tripinfo id="veh180" depart="110.00" departLane="43544001#5_1" departPos="2.26" departSpeed="0.00" departDelay="0.20" arrival="198.00" arrivalLane="-43546088_1" arrivalPos="225.01" arrivalSpeed="13.74" duration="88.00" routeLength="981.14" waitingTime="0.00" waitingCount="0" stopTime="0.00" timeLoss="15.20" rerouteNo="0" devices="tripinfo_veh180" vType="motorcycle" speedFactor="1.00" vaporized=""/>
    <tripinfo id="veh75" depart="46.00" departLane="-530106516#2_1" departPos="1.27" departSpeed="0.00" departDelay="0.25" arrival="202.00" arrivalLane="48736645_1" arrivalPos="132.12" arrivalSpeed="14.63" duration="156.00" routeLength="1850.31" waitingTime="0.00" waitingCount="0" stopTime="0.00" timeLoss="25.63" rerouteNo="0" devices="tripinfo_veh75" vType="passenger" speedFactor="1.06" vaporized=""/>
    <tripinfo id="veh104" depart="64.00" departLane="-43573547#2_1" departPos="3.35" departSpeed="0.00" departDelay="0.56" arrival="206.00" arrivalLane="-671642327_0" arrivalPos="205.40" arrivalSpeed="5.26" duration="142.00" routeLength="1225.29" waitingTime="0.00" waitingCount="0" stopTime="0.00" timeLoss="25.08" rerouteNo="0" devices="tripinfo_veh104" vType="passenger" speedFactor="1.00" vaporized=""/>
    <tripinfo id="veh21" depart="13.00" departLane="-43546105#3_1" departPos="14.94" departSpeed="0.00" departDelay="0.19" arrival="207.00" arrivalLane="1250915720#2_1" arrivalPos="2.90" arrivalSpeed="5.40" duration="194.00" routeLength="1837.68" waitingTime="4.00" waitingCount="2" stopTime="0.00" timeLoss="41.54" rerouteNo="0" devices="tripinfo_veh21" vType="passenger" speedFactor="1.03" vaporized=""/>
    <personinfo id="ped6" depart="30.00" type="DEFAULT_PEDTYPE" speedFactor="1.02" duration="181.00" waitingTime="0.00" timeLoss="23.32" traveltime="181.00">
        <walk depart="30.00" departPos="0.00" arrival="211.00" arrivalPos="5.97" duration="181.00" routeLength="222.99" timeLoss="23.32" maxSpeed="1.41"/>
    </personinfo>
    <personinfo id="ped10" depart="50.00" type="DEFAULT_PEDTYPE" speedFactor="0.96" duration="161.00" waitingTime="0.00" timeLoss="16.38" traveltime="161.00">
        <walk depart="50.00" departPos="0.00" arrival="211.00" arrivalPos="42.43" duration="161.00" routeLength="192.69" timeLoss="16.38" maxSpeed="1.33"/>
    </personinfo>
    <tripinfo id="veh165" depart="101.00" departLane="-353939570#10_2" departPos="125.29" departSpeed="0.00" departDelay="0.35" arrival="211.00" arrivalLane="-1250915726_1" arrivalPos="293.03" arrivalSpeed="4.82" duration="110.00" routeLength="692.38" waitingTime="3.00" waitingCount="1" stopTime="0.00" timeLoss="18.55" rerouteNo="0" devices="tripinfo_veh165" vType="emergency" speedFactor="1.00" vaporized=""/>
    <tripinfo id="veh153" depart="94.00" departLane="354252043_1" departPos="51.21" departSpeed="0.00" departDelay="0.67" arrival="213.00" arrivalLane="-48778525#0_1" arrivalPos="49.94" arrivalSpeed="15.58" duration="119.00" routeLength="1471.38" waitingTime="0.00" waitingCount="0" stopTime="0.00" timeLoss="24.50" rerouteNo="0" devices="tripinfo_veh153" vType="passenger" speedFactor="1.18" vaporized=""/>
    <tripinfo id="veh72" depart="44.00" departLane="48778503#0_1" departPos="33.93" departSpeed="0.00" departDelay="0.08" arrival="214.00" arrivalLane="-48778475#2_1" arrivalPos="60.74" arrivalSpeed="13.06" duration="170.00" routeLength="1708.47" waitingTime="0.00" waitingCount="0" stopTime="0.00" timeLoss="34.52" rerouteNo="0" devices="tripinfo_veh72" vType="motorcycle" speedFactor="0.94" vaporized=""/>
    <tripinfo id="veh129" depart="80.00" departLane="-40236144#2_1" departPos="5.40" departSpeed="0.00" departDelay="1.31" arrival="215.00" arrivalLane="40299241#0_1" arrivalPos="57.32" arrivalSpeed="12.56" duration="135.00" routeLength="1463.84" waitingTime="0.00" waitingCount="0" stopTime="0.00" timeLoss="16.48" rerouteNo="0" devices="tripinfo_veh129" vType="passenger" speedFactor="0.91" vaporized=""/>
    <tripinfo id="veh263" depart="161.00" departLane="-43544197#7_1" departPos="30.72" departSpeed="0.00" departDelay="0.57" arrival="215.00" arrivalLane="43544138#6_1" arrivalPos="39.12" arrivalSpeed="14.69" duration="54.00" routeLength="473.41" waitingTime="6.00" waitingCount="1" stopTime="0.00" timeLoss="21.81" rerouteNo="0" devices="tripinfo_veh263" vType="passenger" speedFactor="1.13" vaporized=""/>
    <tripinfo id="veh278" depart="170.00" departLane="-176279225#3_2" departPos="4.69" departSpeed="0.00" departDelay="0.42" arrival="217.00" arrivalLane="33909840#0_1" arrivalPos="209.53" arrivalSpeed="14.96" duration="47.00" routeLength="618.53" waitingTime="0.00" waitingCount="0" stopTime="0.00" timeLoss="7.51" rerouteNo="0" devices="tripinfo_veh278" vType="passenger" speedFactor="1.16" vaporized=""/>
    <tripinfo id="veh31" depart="19.00" departLane="-354259933#2_1" departPos="28.77" departSpeed="0.00" departDelay="0.09" arrival="218.00" arrivalLane="-48736611#1_1" arrivalPos="4.90" arrivalSpeed="8.40" duration="199.00" routeLength="2326.68" waitingTime="15.00" waitingCount="1" stopTime="0.00" timeLoss="42.19" rerouteNo="0" devices="tripinfo_veh31" vType="passenger" speedFactor="1.10" vaporized=""/>
    <tripinfo id="veh74" depart="46.00" departLane="-492965073#2_2" departPos="105.98" departSpeed="0.00" departDelay="0.86" arrival="220.00" arrivalLane="859732802#1_0" arrivalPos="140.93" arrivalSpeed="5.81" duration="174.00" routeLength="1575.80" waitingTime="10.00" waitingCount="2" stopTime="0.00" timeLoss="44.15" rerouteNo="0" devices="tripinfo_veh74" vType="passenger" speedFactor="1.05" vaporized=""/>
    <tripinfo id="veh293" depart="179.00" departLane="-143207979#7_1" departPos="20.84" departSpeed="0.00" departDelay="0.27" arrival="220.00" arrivalLane="-222608881#0_1" arrivalPos="169.24" arrivalSpeed="14.08" duration="41.00" routeLength="451.50" waitingTime="0.00" waitingCount="0" stopTime="0.00" timeLoss="7.56" rerouteNo="0" devices="tripinfo_veh293" vType="motorcycle" speedFactor="1.03" vaporized=""/>
    <tripinfo id="veh230" depart="141.00" departLane="-48778453_1" departPos="19.42" departSpeed="0.00" departDelay="0.70" arrival="221.00" arrivalLane="1136301812#0_1" arrivalPos="36.85" arrivalSpeed="14.32" duration="80.00" routeLength="557.32" waitingTime="20.00" waitingCount="1" stopTime="0.00" timeLoss="38.74" rerouteNo="0" devices="tripinfo_veh230" vType="passenger" speedFactor="1.05" vaporized=""/>
    <tripinfo id="veh58" depart="36.00" departLane="48736610#0_1" departPos="61.18" departSpeed="0.00" departDelay="0.62" arrival="224.00" arrivalLane="48778475#1_1" arrivalPos="25.99" arrivalSpeed="14.08" duration="188.00" routeLength="1871.66" waitingTime="22.00" waitingCount="2" stopTime="0.00" timeLoss="53.89" rerouteNo="0" devices="tripinfo_veh58" vType="passenger" speedFactor="1.02" vaporized=""/>
    <tripinfo id="veh233" depart="143.00" departLane="859732802#0_0" departPos="4.44" departSpeed="0.00" departDelay="0.87" arrival="225.00" arrivalLane="43573547#6_1" arrivalPos="56.24" arrivalSpeed="12.67" duration="82.00" routeLength="862.56" waitingTime="0.00" waitingCount="0" stopTime="0.00" timeLoss="11.47" rerouteNo="0" devices="tripinfo_veh233" vType="passenger" speedFactor="0.98" vaporized=""/>
    <tripinfo id="veh47" depart="29.00" departLane="43546105#0_1" departPos="127.58" departSpeed="0.00" departDelay="0.33" arrival="226.00" arrivalLane="-222605087#3_1" arrivalPos="56.94" arrivalSpeed="4.44" duration="197.00" routeLength="1753.61" waitingTime="0.00" waitingCount="0" stopTime="0.00" timeLoss="32.75" rerouteNo="0" devices="tripinfo_veh47" vType="delivery" speedFactor="0.98" vaporized=""/>
    <tripinfo id="veh234" depart="143.00" departLane="-945793490#4_1" departPos="48.42" departSpeed="0.00" departDelay="0.26" arrival="226.00" arrivalLane="-353939570#4_1" arrivalPos="276.20" arrivalSpeed="14.12" duration="83.00" routeLength="602.77" waitingTime="9.00" waitingCount="1" stopTime="0.00" timeLoss="20.13" rerouteNo="0" devices="tripinfo_veh234" vType="passenger" speedFactor="1.03" vaporized=""/>
    <tripinfo id="veh321" depart="196.00" departLane="-43546688#2_1" departPos="36.17" departSpeed="0.00" departDelay="0.19" arrival="227.00" arrivalLane="43546789#3_1" arrivalPos="80.36" arrivalSpeed="15.74" duration="31.00" routeLength="365.10" waitingTime="0.00" waitingCount="0" stopTime="0.00" timeLoss="7.70" rerouteNo="0" devices="tripinfo_veh321" vType="passenger" speedFactor="1.19" vaporized=""/>