<?xml version="1.0" encoding="UTF-8"?>

<!-- generated on 2025-06-12 12:31:09 by Eclipse SUMO sumo Version 1.22.0
<sumoConfiguration xmlns:xsi="http://www.w3.org/2001/XMLSchema-instance" xsi:noNamespaceSchemaLocation="http://sumo.dlr.de/xsd/sumoConfiguration.xsd">

    <input>
        <net-file value="osm.net.xml"/>
        <route-files value="full.rou.xml, ped.rou.xml, truck.rou.xml"/>
        <additional-files value="osm.poly.xml, vtypes.xml"/>
    </input>

    <output>
        <summary-output value="summary.xml"/>
        <tripinfo-output value="E:\licenta\oras-mediu\2025-06-05-11-45-23\baseline_outputs\tripinfo_baseline_ep6.xml"/>
    </output>

    <processing>
        <ignore-route-errors value="true"/>
        <tls.actuated.jam-threshold value="30"/>
    </processing>

    <routing>
        <device.rerouting.adaptation-steps value="18"/>
        <device.rerouting.adaptation-interval value="10"/>
    </routing>

    <report>
        <verbose value="true"/>
        <duration-log.statistics value="true"/>
        <no-step-log value="true"/>
    </report>

    <traci_server>
        <remote-port value="64470"/>
    </traci_server>

    <gui_only>
        <gui-settings-file value="osm.view.xml"/>
    </gui_only>

</sumoConfiguration>
-->

<tripinfos xmlns:xsi="http://www.w3.org/2001/XMLSchema-instance" xsi:noNamespaceSchemaLocation="http://sumo.dlr.de/xsd/tripinfo_file.xsd">
    <tripinfo id="veh75" depart="41.00" departLane="143207979#4_1" departPos="15.54" departSpeed="0.00" departDelay="0.50" arrival="62.00" arrivalLane="43544197#7_1" arrivalPos="49.46" arrivalSpeed="14.58" duration="21.00" routeLength="200.76" waitingTime="0.00" waitingCount="0" stopTime="0.00" timeLoss="7.69" rerouteNo="0" devices="tripinfo_veh75" vType="passenger" speedFactor="1.14" vaporized=""/>
    <tripinfo id="veh12" depart="7.00" departLane="43573769#0_1" departPos="2.06" departSpeed="0.00" departDelay="0.52" arrival="76.00" arrivalLane="48778510#1_1" arrivalPos="102.69" arrivalSpeed="12.49" duration="69.00" routeLength="668.72" waitingTime="0.00" waitingCount="0" stopTime="0.00" timeLoss="15.74" rerouteNo="0" devices="tripinfo_veh12" vType="delivery" speedFactor="0.97" vaporized=""/>
    <tripinfo id="veh68" depart="37.00" departLane="48736614#3_1" departPos="62.07" departSpeed="0.00" departDelay="0.28" arrival="85.00" arrivalLane="40314583#5_1" arrivalPos="12.50" arrivalSpeed="12.05" duration="48.00" routeLength="550.43" waitingTime="0.00" waitingCount="0" stopTime="0.00" timeLoss="7.89" rerouteNo="0" devices="tripinfo_veh68" vType="passenger" speedFactor="1.01" vaporized=""/>
    <tripinfo id="veh113" depart="62.00" departLane="-1250915721#1_1" departPos="4.83" departSpeed="0.00" departDelay="0.98" arrival="98.00" arrivalLane="-353939570#7_2" arrivalPos="11.97" arrivalSpeed="14.17" duration="36.00" routeLength="249.00" waitingTime="0.00" waitingCount="0" stopTime="0.00" timeLoss="6.05" rerouteNo="0" devices="tripinfo_veh113" vType="delivery" speedFactor="1.06" vaporized=""/>
    <tripinfo id="veh92" depart="50.00" departLane="-1136289987_1" departPos="59.72" departSpeed="0.00" departDelay="0.32" arrival="100.00" arrivalLane="43573769#1_1" arrivalPos="54.95" arrivalSpeed="12.51" duration="50.00" routeLength="458.03" waitingTime="0.00" waitingCount="0" stopTime="0.00" timeLoss="11.48" rerouteNo="0" devices="tripinfo_veh92" vType="passenger" speedFactor="0.99" vaporized=""/>
    <tripinfo id="veh4" depart="3.00" departLane="1136119743#0_1" departPos="6.06" departSpeed="0.00" departDelay="0.84" arrival="103.00" arrivalLane="-48778508#2_1" arrivalPos="0.58" arrivalSpeed="12.94" duration="100.00" routeLength="1047.94" waitingTime="0.00" waitingCount="0" stopTime="0.00" timeLoss="12.54" rerouteNo="0" devices="tripinfo_veh4" vType="passenger" speedFactor="1.02" vaporized=""/>
    <tripinfo id="veh18" depart="10.00" departLane="-48736646#0_1" departPos="26.82" departSpeed="0.00" departDelay="0.28" arrival="107.00" arrivalLane="48778472_1" arrivalPos="49.54" arrivalSpeed="12.96" duration="97.00" routeLength="639.04" waitingTime="31.00" waitingCount="1" stopTime="0.00" timeLoss="48.66" rerouteNo="0" devices="tripinfo_veh18" vType="passenger" speedFactor="1.01" vaporized=""/>
    <tripinfo id="veh39" depart="22.00" departLane="-994066252#0_0" departPos="7.96" departSpeed="0.00" departDelay="0.94" arrival="122.00" arrivalLane="48797768_1" arrivalPos="94.07" arrivalSpeed="13.69" duration="100.00" routeLength="1182.60" waitingTime="0.00" waitingCount="0" stopTime="0.00" timeLoss="15.60" rerouteNo="0" devices="tripinfo_veh39" vType="passenger" speedFactor="1.06" vaporized=""/>
    <tripinfo id="veh48" depart="26.00" departLane="-1250915724#0_1" departPos="1.90" departSpeed="0.00" departDelay="0.08" arrival="122.00" arrivalLane="33909936#4_1" arrivalPos="15.05" arrivalSpeed="14.27" duration="96.00" routeLength="941.98" waitingTime="0.00" waitingCount="0" stopTime="0.00" timeLoss="20.04" rerouteNo="0" devices="tripinfo_veh48" vType="passenger" speedFactor="1.12" vaporized=""/>
    <tripinfo id="veh36" depart="20.00" departLane="1050436320_0" departPos="118.66" departSpeed="0.00" departDelay="0.56" arrival="124.00" arrivalLane="33909840#0_1" arrivalPos="209.53" arrivalSpeed="14.51" duration="104.00" routeLength="824.83" waitingTime="1.00" waitingCount="1" stopTime="0.00" timeLoss="17.47" rerouteNo="0" devices="tripinfo_veh36" vType="passenger" speedFactor="1.09" vaporized=""/>
    <tripinfo id="veh62" depart="34.00" departLane="40314853#2_1" departPos="28.60" departSpeed="0.00" departDelay="0.52" arrival="124.00" arrivalLane="-383582854#2_0" arrivalPos="38.66" arrivalSpeed="4.79" duration="90.00" routeLength="1038.33" waitingTime="0.00" waitingCount="0" stopTime="0.00" timeLoss="13.83" rerouteNo="0" devices="tripinfo_veh62" vType="passenger" speedFactor="1.09" vaporized=""/>
    <tripinfo id="veh95" depart="52.00" departLane="-48778498#1_1" departPos="12.30" departSpeed="0.00" departDelay="0.70" arrival="126.00" arrivalLane="-996984133_1" arrivalPos="75.36" arrivalSpeed="6.03" duration="74.00" routeLength="631.80" waitingTime="0.00" waitingCount="0" stopTime="0.00" timeLoss="17.47" rerouteNo="0" devices="tripinfo_veh95" vType="motorcycle" speedFactor="0.94" vaporized=""/>
    <tripinfo id="veh44" depart="24.00" departLane="996984235_0" departPos="10.34" departSpeed="0.00" departDelay="0.24" arrival="127.00" arrivalLane="-48778508#3_1" arrivalPos="2.39" arrivalSpeed="11.95" duration="103.00" routeLength="1062.11" waitingTime="0.00" waitingCount="0" stopTime="0.00" timeLoss="14.95" rerouteNo="0" devices="tripinfo_veh44" vType="motorcycle" speedFactor="0.90" vaporized=""/>
    <tripinfo id="veh114" depart="62.00" departLane="-1135772297_0" departPos="1.00" departSpeed="0.00" departDelay="0.44" arrival="130.00" arrivalLane="48778473#2_1" arrivalPos="37.10" arrivalSpeed="16.65" duration="68.00" routeLength="583.27" waitingTime="0.00" waitingCount="0" stopTime="0.00" timeLoss="25.46" rerouteNo="0" devices="tripinfo_veh114" vType="passenger" speedFactor="1.21" vaporized=""/>
    <tripinfo id="veh41" depart="23.00" departLane="353939586#0_2" departPos="80.75" departSpeed="0.00" departDelay="0.86" arrival="132.00" arrivalLane="E13_1" arrivalPos="35.68" arrivalSpeed="14.39" duration="109.00" routeLength="1329.76" waitingTime="0.00" waitingCount="0" stopTime="0.00" timeLoss="15.78" rerouteNo="0" devices="tripinfo_veh41" vType="passenger" speedFactor="1.05" vaporized=""/>
    <tripinfo id="veh23" depart="13.00" departLane="383582518#0_0" departPos="30.95" departSpeed="0.00" departDelay="0.58" arrival="136.00" arrivalLane="-48778502#1_1" arrivalPos="195.25" arrivalSpeed="15.37" duration="123.00" routeLength="1436.22" waitingTime="7.00" waitingCount="1" stopTime="0.00" timeLoss="24.95" rerouteNo="0" devices="tripinfo_veh23" vType="passenger" speedFactor="1.15" vaporized=""/>
    <tripinfo id="veh64" depart="35.00" departLane="-40299738_1" departPos="25.35" departSpeed="0.00" departDelay="0.44" arrival="140.00" arrivalLane="492965073#9_1" arrivalPos="76.43" arrivalSpeed="12.95" duration="105.00" routeLength="1321.82" waitingTime="0.00" waitingCount="0" stopTime="0.00" timeLoss="10.13" rerouteNo="0" devices="tripinfo_veh64" vType="passenger" speedFactor="1.02" vaporized=""/>
    <tripinfo id="veh32" depart="18.00" departLane="647347140#1_1" departPos="9.52" departSpeed="0.00" departDelay="0.72" arrival="144.00" arrivalLane="-383582512#0_0" arrivalPos="35.67" arrivalSpeed="5.65" duration="126.00" routeLength="1289.45" waitingTime="0.00" waitingCount="0" stopTime="0.00" timeLoss="24.34" rerouteNo="0" devices="tripinfo_veh32" vType="passenger" speedFactor="1.03" vaporized=""/>
    <tripinfo id="veh254" depart="138.00" departLane="250295513_1" departPos="1.48" departSpeed="0.00" departDelay="0.84" arrival="153.00" arrivalLane="-250295383#1_1" arrivalPos="60.77" arrivalSpeed="13.78" duration="15.00" routeLength="120.39" waitingTime="0.00" waitingCount="0" stopTime="0.00" timeLoss="5.99" rerouteNo="0" devices="tripinfo_veh254" vType="passenger" speedFactor="1.07" vaporized=""/>
    <tripinfo id="veh112" depart="61.00" departLane="-48778510#1_1" departPos="1.11" departSpeed="0.00" departDelay="0.52" arrival="154.00" arrivalLane="859732802#0_0" arrivalPos="5.59" arrivalSpeed="5.29" duration="93.00" routeLength="991.34" waitingTime="0.00" waitingCount="0" stopTime="0.00" timeLoss="17.99" rerouteNo="0" devices="tripinfo_veh112" vType="delivery" speedFactor="1.01" vaporized=""/>
    <tripinfo id="veh125" depart="68.00" departLane="1135772296#0_0" departPos="10.52" departSpeed="0.00" departDelay="0.50" arrival="154.00" arrivalLane="945793485#1_1" arrivalPos="18.52" arrivalSpeed="11.90" duration="86.00" routeLength="689.31" waitingTime="2.00" waitingCount="1" stopTime="0.00" timeLoss="21.96" rerouteNo="0" devices="tripinfo_veh125" vType="passenger" speedFactor="0.88" vaporized=""/>
    <tripinfo id="veh56" depart="31.00" departLane="-48778511_1" departPos="36.53" departSpeed="0.00" departDelay="0.76" arrival="155.00" arrivalLane="43546109_1" arrivalPos="180.80" arrivalSpeed="12.90" duration="124.00" routeLength="1314.19" waitingTime="0.00" waitingCount="0" stopTime="0.00" timeLoss="21.13" rerouteNo="0" devices="tripinfo_veh56" vType="delivery" speedFactor="0.96" vaporized=""/>
    <tripinfo id="veh70" depart="38.00" departLane="48797766#1_1" departPos="5.93" departSpeed="0.00" departDelay="0.20" arrival="155.00" arrivalLane="E9_2" arrivalPos="42.23" arrivalSpeed="11.00" duration="117.00" routeLength="1099.45" waitingTime="0.00" waitingCount="0" stopTime="0.00" timeLoss="18.82" rerouteNo="0" devices="tripinfo_veh70" vType="passenger" speedFactor="0.83" vaporized=""/>
    <tripinfo id="veh72" depart="39.00" departLane="-E13_2" departPos="1.04" departSpeed="0.00" departDelay="0.12" arrival="159.00" arrivalLane="-40269009#0_1" arrivalPos="20.68" arrivalSpeed="14.08" duration="120.00" routeLength="1372.22" waitingTime="0.00" waitingCount="0" stopTime="0.00" timeLoss="17.84" rerouteNo="0" devices="tripinfo_veh72" vType="passenger" speedFactor="1.06" vaporized=""/>
    <tripinfo id="veh116" depart="63.00" departLane="-1136289989_1" departPos="6.99" departSpeed="0.00" departDelay="0.36" arrival="159.00" arrivalLane="647998062_1" arrivalPos="77.82" arrivalSpeed="13.10" duration="96.00" routeLength="880.84" waitingTime="0.00" waitingCount="0" stopTime="0.00" timeLoss="22.68" rerouteNo="0" devices="tripinfo_veh116" vType="passenger" speedFactor="0.97" vaporized=""/>
    <tripinfo id="veh85" depart="46.00" departLane="-48778527_1" departPos="4.13" departSpeed="0.00" departDelay="0.10" arrival="160.00" arrivalLane="-383582514_1" arrivalPos="205.28" arrivalSpeed="9.72" duration="114.00" routeLength="1556.65" waitingTime="0.00" waitingCount="0" stopTime="0.00" timeLoss="14.77" rerouteNo="0" devices="tripinfo_veh85" vType="passenger" speedFactor="1.25" vaporized=""/>
    <tripinfo id="veh51" depart="28.00" departLane="43546688#2_1" departPos="34.27" departSpeed="0.00" departDelay="0.46" arrival="163.00" arrivalLane="-945794110_1" arrivalPos="52.39" arrivalSpeed="8.05" duration="135.00" routeLength="1354.72" waitingTime="0.00" waitingCount="0" stopTime="0.00" timeLoss="28.22" rerouteNo="0" devices="tripinfo_veh51" vType="delivery" speedFactor="0.99" vaporized=""/>
    <tripinfo id="veh60" depart="33.00" departLane="-48736640#1_1" departPos="52.83" departSpeed="0.00" departDelay="0.60" arrival="164.00" arrivalLane="40236144#3_1" arrivalPos="85.78" arrivalSpeed="13.56" duration="131.00" routeLength="1501.85" waitingTime="1.00" waitingCount="1" stopTime="0.00" timeLoss="23.89" rerouteNo="0" devices="tripinfo_veh60" vType="passenger" speedFactor="1.03" vaporized=""/>
    <tripinfo id="veh129" depart="74.00" departLane="1250915720#5_1" departPos="0.59" departSpeed="0.00" departDelay="4.34" arrival="166.00" arrivalLane="-40330583#1_1" arrivalPos="234.51" arrivalSpeed="23.67" duration="92.00" routeLength="1087.07" waitingTime="0.00" waitingCount="0" stopTime="0.00" timeLoss="9.19" rerouteNo="0" devices="tripinfo_veh129" vType="passenger" speedFactor="0.97" vaporized=""/>
    <tripinfo id="veh185" depart="100.00" departLane="354259933#2_1" departPos="80.98" departSpeed="0.00" departDelay="0.10" arrival="166.00" arrivalLane="43573769#0_1" arrivalPos="44.70" arrivalSpeed="15.40" duration="66.00" routeLength="803.51" waitingTime="0.00" waitingCount="0" stopTime="0.00" timeLoss="12.54" rerouteNo="0" devices="tripinfo_veh185" vType="motorcycle" speedFactor="1.14" vaporized=""/>
    <tripinfo id="veh83" depart="45.00" departLane="43546449#1_1" departPos="17.82" departSpeed="0.00" departDelay="0.18" arrival="171.00" arrivalLane="-1136301818_1" arrivalPos="34.45" arrivalSpeed="13.54" duration="126.00" routeLength="977.83" waitingTime="12.00" waitingCount="3" stopTime="0.00" timeLoss="47.89" rerouteNo="0" devices="tripinfo_veh83" vType="passenger" speedFactor="0.98" vaporized=""/>
    <tripinfo id="veh128" depart="70.00" departLane="1136119745_1" departPos="7.74" departSpeed="0.00" departDelay="0.88" arrival="172.00" arrivalLane="222605087#5_1" arrivalPos="44.15" arrivalSpeed="5.08" duration="102.00" routeLength="746.32" waitingTime="0.00" waitingCount="0" stopTime="0.00" timeLoss="17.92" rerouteNo="0" devices="tripinfo_veh128" vType="passenger" speedFactor="1.13" vaporized=""/>
    <tripinfo id="veh104" depart="57.00" departLane="251916699#2.34_2" departPos="5.33" departSpeed="0.00" departDelay="0.84" arrival="174.00" arrivalLane="1107366376_0" arrivalPos="149.99" arrivalSpeed="2.53" duration="117.00" routeLength="583.82" waitingTime="22.00" waitingCount="1" stopTime="0.00" timeLoss="44.12" rerouteNo="0" devices="tripinfo_veh104" vType="motorcycle" speedFactor="0.84" vaporized=""/>
    <tripinfo id="veh63" depart="35.00" departLane="-40330592_1" departPos="91.86" departSpeed="0.00" departDelay="0.98" arrival="175.00" arrivalLane="-1136284448_1" arrivalPos="34.50" arrivalSpeed="7.00" duration="140.00" routeLength="890.85" waitingTime="37.00" waitingCount="1" stopTime="0.00" timeLoss="62.22" rerouteNo="0" devices="tripinfo_veh63" vType="passenger" speedFactor="0.90" vaporized=""/>
    <personinfo id="ped2" depart="10.00" type="DEFAULT_PEDTYPE" speedFactor="1.00" duration="169.00" waitingTime="0.00" timeLoss="17.55" traveltime="169.00">
        <walk depart="10.00" departPos="0.00" arrival="179.00" arrivalPos="20.77" duration="169.00" routeLength="210.07" timeLoss="17.55" maxSpeed="1.39"/>
    </personinfo>
    <tripinfo id="veh146" depart="79.00" departLane="-92198451#0.58_2" departPos="3.03" departSpeed="0.00" departDelay="0.16" arrival="179.00" arrivalLane="-43546648#5_1" arrivalPos="18.50" arrivalSpeed="12.26" duration="100.00" routeLength="785.98" waitingTime="25.00" waitingCount="2" stopTime="0.00" timeLoss="41.35" rerouteNo="0" devices="tripinfo_veh146" vType="delivery" speedFactor="0.97" vaporized=""/>
    <tripinfo id="veh33" depart="18.00" departLane="-40330592_1" departPos="9.96" departSpeed="0.00" departDelay="0.18" arrival="186.00" arrivalLane="-43544179#8_1" arrivalPos="43.05" arrivalSpeed="14.08" duration="168.00" routeLength="2001.34" waitingTime="0.00" waitingCount="0" stopTime="0.00" timeLoss="26.56" rerouteNo="0" devices="tripinfo_veh33" vType="passenger" speedFactor="1.07" vaporized=""/>
    <tripinfo id="veh144" depart="78.00" departLane="-984521612#1_0" departPos="8.21" departSpeed="0.00" departDelay="0.24" arrival="186.00" arrivalLane="40265777#1_1" arrivalPos="65.39" arrivalSpeed="13.20" duration="108.00" routeLength="919.51" waitingTime="0.00" waitingCount="0" stopTime="0.00" timeLoss="31.67" rerouteNo="0" devices="tripinfo_veh144" vType="passenger" speedFactor="1.03" vaporized=""/>
    <tripinfo id="veh207" depart="112.00" departLane="-48778472_1" departPos="6.97" departSpeed="0.00" departDelay="0.22" arrival="186.00" arrivalLane="-48778461#0_1" arrivalPos="53.57" arrivalSpeed="13.96" duration="74.00" routeLength="641.60" waitingTime="0.00" waitingCount="0" stopTime="0.00" timeLoss="23.34" rerouteNo="0" devices="tripinfo_veh207" vType="passenger" speedFactor="1.01" vaporized=""/>
    <tripinfo id="veh252" depart="137.00" departLane="48736607#1_1" departPos="179.33" departSpeed="0.00" departDelay="0.92" arrival="188.00" arrivalLane="1136279388_0" arrivalPos="33.51" arrivalSpeed="3.96" duration="51.00" routeLength="429.84" waitingTime="0.00" waitingCount="0" stopTime="0.00" timeLoss="12.84" rerouteNo="0" devices="tripinfo_veh252" vType="motorcycle" speedFactor="0.99" vaporized=""/>
    <tripinfo id="veh98" depart="53.00" departLane="40266620_1" departPos="5.66" departSpeed="0.00" departDelay="0.08" arrival="190.00" arrivalLane="43544179#7_1" arrivalPos="45.61" arrivalSpeed="11.41" duration="137.00" routeLength="1403.53" waitingTime="1.00" waitingCount="1" stopTime="0.00" timeLoss="20.61" rerouteNo="0" devices="tripinfo_veh98" vType="passenger" speedFactor="0.89" vaporized=""/>
    <tripinfo id="veh246" depart="133.00" departLane="67712683_1" departPos="20.73" departSpeed="0.00" departDelay="0.16" arrival="190.00" arrivalLane="43546105#3_1" arrivalPos="36.33" arrivalSpeed="10.27" duration="57.00" routeLength="551.05" waitingTime="0.00" waitingCount="0" stopTime="0.00" timeLoss="7.76" rerouteNo="0" devices="tripinfo_veh246" vType="passenger" speedFactor="0.83" vaporized=""/>
    <tripinfo id="veh66" depart="36.00" departLane="-48778478#0_1" departPos="0.12" departSpeed="0.00" departDelay="0.36" arrival="194.00" arrivalLane="-1135855912_1" arrivalPos="95.20" arrivalSpeed="13.04" duration="158.00" routeLength="1425.06" waitingTime="17.00" waitingCount="1" stopTime="0.00" timeLoss="45.37" rerouteNo="0" devices="tripinfo_veh66" vType="passenger" speedFactor="0.98" vaporized=""/>
    <tripinfo id="veh167" depart="91.00" departLane="-143207979#4_1" departPos="0.13" departSpeed="0.00" departDelay="0.82" arrival="195.00" arrivalLane="-383582514_1" arrivalPos="205.28" arrivalSpeed="8.54" duration="104.00" routeLength="1128.98" waitingTime="0.00" waitingCount="0" stopTime="0.00" timeLoss="12.80" rerouteNo="0" devices="tripinfo_veh167" vType="delivery" speedFactor="1.03" vaporized=""/>
    <tripinfo id="veh101" depart="55.00" departLane="48736621#1_1" departPos="19.08" departSpeed="0.00" departDelay="0.46" arrival="198.00" arrivalLane="40299276#1_1" arrivalPos="70.79" arrivalSpeed="14.55" duration="143.00" routeLength="1062.61" waitingTime="28.00" waitingCount="2" stopTime="0.00" timeLoss="68.56" rerouteNo="0" devices="tripinfo_veh101" vType="passenger" speedFactor="1.12" vaporized=""/>
    <personinfo id="ped0" depart="0.00" type="DEFAULT_PEDTYPE" speedFactor="1.03" duration="199.00" waitingTime="0.00" timeLoss="21.02" traveltime="199.00">
        <walk depart="0.00" departPos="0.00" arrival="199.00" arrivalPos="125.57" duration="199.00" routeLength="254.69" timeLoss="21.02" maxSpeed="1.43"/>
    </personinfo>
    <personinfo id="ped3" depart="15.00" type="DEFAULT_PEDTYPE" speedFactor="0.95" duration="184.00" waitingTime="0.00" timeLoss="18.12" traveltime="184.00">
        <walk depart="15.00" departPos="0.00" arrival="199.00" arrivalPos="57.67" duration="184.00" routeLength="218.75" timeLoss="18.12" maxSpeed="1.32"/>
    </personinfo>
    <tripinfo id="veh2" depart="2.00" departLane="-48778472_1" departPos="29.23" departSpeed="0.00" departDelay="0.92" arrival="199.00" arrivalLane="994065253_0" arrivalPos="79.67" arrivalSpeed="5.09" duration="197.00" routeLength="2295.80" waitingTime="4.00" waitingCount="1" stopTime="0.00" timeLoss="31.35" rerouteNo="0" devices="tripinfo_veh2" vType="passenger" speedFactor="1.08" vaporized=""/>
    <tripinfo id="veh170" depart="92.00" departLane="1054663939_1" departPos="11.91" departSpeed="0.00" departDelay="0.20" arrival="201.00" arrivalLane="48778492_1" arrivalPos="35.41" arrivalSpeed="8.68" duration="109.00" routeLength="1097.46" waitingTime="1.00" waitingCount="1" stopTime="0.00" timeLoss="31.18" rerouteNo="0" devices="tripinfo_veh170" vType="motorcycle" speedFactor="1.10" vaporized=""/>
    <tripinfo id="veh100" depart="54.00" departLane="-40345930_1" departPos="14.97" departSpeed="0.00" departDelay="0.00" arrival="202.00" arrivalLane="945793491#0_1" arrivalPos="34.62" arrivalSpeed="4.57" duration="148.00" routeLength="1269.03" waitingTime="0.00" waitingCount="0" stopTime="0.00" timeLoss="27.06" rerouteNo="0" devices="tripinfo_veh100" vType="passenger" speedFactor="1.00" vaporized=""/>
    <tripinfo id="veh94" depart="51.00" departLane="-250295383#1_1" departPos="3.19" departSpeed="0.00" departDelay="0.24" arrival="203.00" arrivalLane="-994066252#1_0" arrivalPos="52.62" arrivalSpeed="3.06" duration="152.00" routeLength="1511.43" waitingTime="0.00" waitingCount="0" stopTime="0.00" timeLoss="29.35" rerouteNo="0" devices="tripinfo_veh94" vType="motorcycle" speedFactor="0.98" vaporized=""/>
    <tripinfo id="veh74" depart="40.00" departLane="43544179#8_1" departPos="1.70" departSpeed="0.00" departDelay="0.04" arrival="204.00" arrivalLane="671642324_1" arrivalPos="52.30" arrivalSpeed="11.76" duration="164.00" routeLength="1679.73" waitingTime="0.00" waitingCount="0" stopTime="0.00" timeLoss="26.65" rerouteNo="0" devices="tripinfo_veh74" vType="passenger" speedFactor="0.91" vaporized=""/>
    <tripinfo id="veh168" depart="91.00" departLane="-1136283380_1" departPos="12.45" departSpeed="0.00" departDelay="0.28" arrival="204.00" arrivalLane="530103972_1" arrivalPos="49.14" arrivalSpeed="2.79" duration="113.00" routeLength="1099.75" waitingTime="3.00" waitingCount="1" stopTime="0.00" timeLoss="20.22" rerouteNo="0" devices="tripinfo_veh168" vType="passenger" speedFactor="1.04" vaporized=""/>
    <tripinfo id="veh169" depart="92.00" departLane="-250295380#0_1" departPos="154.72" departSpeed="0.00" departDelay="0.74" arrival="208.00" arrivalLane="43573573#3_1" arrivalPos="71.51" arrivalSpeed="15.14" duration="116.00" routeLength="1381.44" waitingTime="2.00" waitingCount="1" stopTime="0.00" timeLoss="27.91" rerouteNo="0" devices="tripinfo_veh169" vType="passenger" speedFactor="1.17" vaporized=""/>
    <personinfo id="ped13" depart="65.00" type="DEFAULT_PEDTYPE" speedFactor="1.10" duration="145.00" waitingTime="0.00" timeLoss="15.56" traveltime="145.00">
        <walk depart="65.00" departPos="0.00" arrival="210.00" arrivalPos="99.96" duration="145.00" routeLength="197.17" timeLoss="15.56" maxSpeed="1.52"/>
    </personinfo>
    <tripinfo id="veh45" depart="25.00" departLane="-E110_1" departPos="43.60" departSpeed="0.00" departDelay="0.70" arrival="212.00" arrivalLane="-43544202#1_1" arrivalPos="96.02" arrivalSpeed="12.79" duration="187.00" routeLength="2206.78" waitingTime="0.00" waitingCount="0" stopTime="0.00" timeLoss="21.66" rerouteNo="0" devices="tripinfo_veh45" vType="delivery" speedFactor="0.98" vaporized=""/>
    <tripinfo id="veh57" depart="31.00" departLane="-48778446#0_1" departPos="53.18" departSpeed="0.00" departDelay="0.22" arrival="212.00" arrivalLane="222609002#3_1" arrivalPos="89.31" arrivalSpeed="13.57" duration="181.00" routeLength="1829.27" waitingTime="29.00" waitingCount="2" stopTime="0.00" timeLoss="55.13" rerouteNo="0" devices="tripinfo_veh57" vType="passenger" speedFactor="1.06" vaporized=""/>
    <tripinfo id="veh161" depart="87.00" departLane="48736622#1_1" departPos="0.10" departSpeed="0.00" departDelay="0.06" arrival="216.00" arrivalLane="1364828571_0" arrivalPos="94.46" arrivalSpeed="5.10" duration="129.00" routeLength="1068.13" waitingTime="20.00" waitingCount="1" stopTime="0.00" timeLoss="39.23" rerouteNo="0" devices="tripinfo_veh161" vType="emergency" speedFactor="1.00" vaporized=""/>
    <tripinfo id="veh227" depart="123.00" departLane="492965073#8_1" departPos="78.17" departSpeed="0.00" departDelay="0.42" arrival="217.00" arrivalLane="48797765#0_1" arrivalPos="17.85" arrivalSpeed="8.64" duration="94.00" routeLength="501.49" waitingTime="41.00" waitingCount="1" stopTime="0.00" timeLoss="56.42" rerouteNo="0" devices="tripinfo_veh227" vType="delivery" speedFactor="1.01" vaporized=""/>
    <tripinfo id="veh3" depart="2.00" departLane="-40236203#3_1" departPos="3.44" departSpeed="0.00" departDelay="0.38" arrival="218.00" arrivalLane="289113778#1_1" arrivalPos="394.53" arrivalSpeed="11.92" duration="216.00" routeLength="2421.08" waitingTime="1.00" waitingCount="1" stopTime="0.00" timeLoss="26.62" rerouteNo="0" devices="tripinfo_veh3" vType="passenger" speedFactor="0.94" vaporized=""/>
    <tripinfo id="veh229" depart="124.00" departLane="-250295383#3_1" departPos="8.24" departSpeed="0.00" departDelay="0.34" arrival="218.00" arrivalLane="48778464#1_1" arrivalPos="10.83" arrivalSpeed="12.75" duration="94.00" routeLength="505.00" waitingTime="39.00" waitingCount="1" stopTime="0.00" timeLoss="54.41" rerouteNo="0" devices="tripinfo_veh229" vType="passenger" speedFactor="0.98" vaporized=""/>
    <tripinfo id="veh189" depart="103.00" departLane="-40304754#2_1" departPos="67.61" departSpeed="0.00" departDelay="0.94" arrival="221.00" arrivalLane="92198453#5_1" arrivalPos="73.54" arrivalSpeed="15.01" duration="118.00" routeLength="1434.30" waitingTime="8.00" waitingCount="1" stopTime="0.00" timeLoss="23.37" rerouteNo="0" devices="tripinfo_veh189" vType="passenger" speedFactor="1.10" vaporized=""/>
    <tripinfo id="veh217" depart="118.00" departLane="43547296#1_1" departPos="5.52" departSpeed="0.00" departDelay="0.82" arrival="221.00" arrivalLane="-258551284#1_1" arrivalPos="135.26" arrivalSpeed="12.63" duration="103.00" routeLength="1030.15" waitingTime="0.00" waitingCount="0" stopTime="0.00" timeLoss="18.46" rerouteNo="0" devices="tripinfo_veh217" vType="delivery" speedFactor="0.93" vaporized=""/>
    <tripinfo id="veh131" depart="71.00" departLane="-48736645_1" departPos="91.82" departSpeed="0.00" departDelay="0.26" arrival="222.00" arrivalLane="48778510#1_1" arrivalPos="102.69" arrivalSpeed="11.65" duration="151.00" routeLength="1481.58" waitingTime="0.00" waitingCount="0" stopTime="0.00" timeLoss="29.65" rerouteNo="0" devices="tripinfo_veh131" vType="motorcycle" speedFactor="0.91" vaporized=""/>
    <tripinfo id="veh26" depart="15.00" departLane="222605085#1_1" departPos="192.53" departSpeed="0.00" departDelay="0.96" arrival="223.00" arrivalLane="-256555440#1_1" arrivalPos="58.59" arrivalSpeed="12.53" duration="208.00" routeLength="1748.37" waitingTime="39.00" waitingCount="2" stopTime="0.00" timeLoss="72.82" rerouteNo="0" devices="tripinfo_veh26" vType="passenger" speedFactor="0.97" vaporized=""/>
    <tripinfo id="veh47" depart="26.00" departLane="-859735387#1_0" departPos="25.70" departSpeed="0.00" departDelay="0.62" arrival="223.00" arrivalLane="48778498#2_1" arrivalPos="98.03" arrivalSpeed="5.41" duration="197.00" routeLength="1861.76" waitingTime="23.00" waitingCount="2" stopTime="0.00" timeLoss="50.42" rerouteNo="0" devices="tripinfo_veh47" vType="passenger" speedFactor="1.00" vaporized=""/>
    <tripinfo id="veh155" depart="84.00" departLane="-1136289989_1" departPos="6.34" departSpeed="0.00" departDelay="0.30" arrival="223.00" arrivalLane="-996984235_0" arrivalPos="15.63" arrivalSpeed="5.59" duration="139.00" routeLength="1883.59" waitingTime="0.00" waitingCount="0" stopTime="0.00" timeLoss="15.51" rerouteNo="0" devices="tripinfo_veh155" vType="passenger" speedFactor="1.15" vaporized=""/>
    <tripinfo id="veh253" depart="137.00" departLane="-48778503#1_1" departPos="46.58" departSpeed="0.00" departDelay="0.38" arrival="230.00" arrivalLane="-48778473#2_1" arrivalPos="37.09" arrivalSpeed="12.98" duration="93.00" routeLength="1106.52" waitingTime="0.00" waitingCount="0" stopTime="0.00" timeLoss="17.81" rerouteNo="0" devices="tripinfo_veh253" vType="passenger" speedFactor="1.07" vaporized=""/>
    <tripinfo id="veh235" depart="127.00" departLane="-1136289991_1" departPos="3.42" departSpeed="0.00" departDelay="0.10" arrival="231.00" arrivalLane="43546039#1_1" arrivalPos="97.78" arrivalSpeed="13.20" duration="104.00" routeLength="1059.20" waitingTime="0.00" waitingCount="0" stopTime="0.00" timeLoss="22.79" rerouteNo="0" devices="tripinfo_veh235" vType="passenger" speedFactor="1.02" vaporized=""/>
    <tripinfo id="veh256" depart="139.00" departLane="-250295383#3_1" departPos="5.66" departSpeed="0.00" departDelay="0.76" arrival="233.00" arrivalLane="48736638#0_1" arrivalPos="65.36" arrivalSpeed="14.86" duration="94.00" routeLength="601.27" waitingTime="27.00" waitingCount="1" stopTime="0.00" timeLoss="51.09" rerouteNo="0" devices="tripinfo_veh256" vType="passenger" speedFactor="1.09" vaporized=""/>
    <tripinfo id="veh8" depart="5.00" departLane="1054663937_1" departPos="24.63" departSpeed="0.00" departDelay="0.68" arrival="235.00" arrivalLane="1276522491_0" arrivalPos="98.51" arrivalSpeed="6.17" duration="230.00" routeLength="2834.21" waitingTime="3.00" waitingCount="1" stopTime="0.00" timeLoss="34.25" rerouteNo="0" devices="tripinfo_veh8" vType="passenger" speedFactor="1.12" vaporized=""/>