<?xml version="1.0" encoding="UTF-8"?>

<!-- generated on 2025-06-12 12:30:23 by Eclipse SUMO sumo Version 1.22.0
<sumoConfiguration xmlns:xsi="http://www.w3.org/2001/XMLSchema-instance" xsi:noNamespaceSchemaLocation="http://sumo.dlr.de/xsd/sumoConfiguration.xsd">

    <input>
        <net-file value="osm.net.xml"/>
        <route-files value="full.rou.xml, ped.rou.xml, truck.rou.xml"/>
        <additional-files value="osm.poly.xml, vtypes.xml"/>
    </input>

    <output>
        <summary-output value="summary.xml"/>
        <tripinfo-output value="E:\licenta\oras-mediu\2025-06-05-11-45-23\baseline_outputs\tripinfo_baseline_ep2.xml"/>
    </output>

    <processing>
        <ignore-route-errors value="true"/>
        <tls.actuated.jam-threshold value="30"/>
    </processing>

    <routing>
        <device.rerouting.adaptation-steps value="18"/>
        <device.rerouting.adaptation-interval value="10"/>
    </routing>

    <report>
        <verbose value="true"/>
        <duration-log.statistics value="true"/>
        <no-step-log value="true"/>
    </report>

    <traci_server>
        <remote-port value="64447"/>
    </traci_server>

    <gui_only>
        <gui-settings-file value="osm.view.xml"/>
    </gui_only>

</sumoConfiguration>
-->

<tripinfos xmlns:xsi="http://www.w3.org/2001/XMLSchema-instance" xsi:noNamespaceSchemaLocation="http://sumo.dlr.de/xsd/tripinfo_file.xsd">
    <tripinfo id="veh39" depart="17.00" departLane="353939570#5_1" departPos="13.09" departSpeed="0.00" departDelay="0.23" arrival="39.00" arrivalLane="353939570#9_1" arrivalPos="72.22" arrivalSpeed="15.05" duration="22.00" routeLength="282.06" waitingTime="0.00" waitingCount="0" stopTime="0.00" timeLoss="4.59" rerouteNo="0" devices="tripinfo_veh39" vType="passenger" speedFactor="1.17" vaporized=""/>
    <tripinfo id="veh13" depart="6.00" departLane="-48778476_1" departPos="69.72" departSpeed="0.00" departDelay="0.41" arrival="53.00" arrivalLane="48778474#0_1" arrivalPos="3.74" arrivalSpeed="13.70" duration="47.00" routeLength="357.02" waitingTime="0.00" waitingCount="0" stopTime="0.00" timeLoss="15.89" rerouteNo="0" devices="tripinfo_veh13" vType="emergency" speedFactor="1.00" vaporized=""/>
    <personinfo id="ped10" depart="50.00" type="DEFAULT_PEDTYPE" speedFactor="0.99" duration="38.00" waitingTime="0.00" timeLoss="4.52" traveltime="38.00">
        <walk depart="50.00" departPos="0.00" arrival="88.00" arrivalPos="20.39" duration="38.00" routeLength="45.83" timeLoss="4.52" maxSpeed="1.37"/>
    </personinfo>
    <tripinfo id="veh63" depart="28.00" departLane="984521612#1_0" departPos="26.39" departSpeed="0.00" departDelay="0.91" arrival="91.00" arrivalLane="-647762524_1" arrivalPos="48.75" arrivalSpeed="10.98" duration="63.00" routeLength="578.00" waitingTime="0.00" waitingCount="0" stopTime="0.00" timeLoss="15.06" rerouteNo="0" devices="tripinfo_veh63" vType="passenger" speedFactor="1.12" vaporized=""/>
    <tripinfo id="veh31" depart="14.00" departLane="43546789#1_1" departPos="23.43" departSpeed="0.00" departDelay="0.67" arrival="92.00" arrivalLane="671642324_1" arrivalPos="52.30" arrivalSpeed="14.21" duration="78.00" routeLength="810.96" waitingTime="0.00" waitingCount="0" stopTime="0.00" timeLoss="18.30" rerouteNo="0" devices="tripinfo_veh31" vType="passenger" speedFactor="1.03" vaporized=""/>
    <tripinfo id="veh32" depart="14.00" departLane="-492965073#8_1" departPos="53.01" departSpeed="0.00" departDelay="0.24" arrival="98.00" arrivalLane="40299276#1_1" arrivalPos="70.79" arrivalSpeed="14.49" duration="84.00" routeLength="1015.57" waitingTime="0.00" waitingCount="0" stopTime="0.00" timeLoss="12.55" rerouteNo="0" devices="tripinfo_veh32" vType="passenger" speedFactor="1.07" vaporized=""/>
    <tripinfo id="veh2" depart="1.00" departLane="401741889#1_1" departPos="37.58" departSpeed="0.00" departDelay="0.14" arrival="104.00" arrivalLane="48778473#2_1" arrivalPos="37.10" arrivalSpeed="14.00" duration="103.00" routeLength="786.39" waitingTime="30.00" waitingCount="1" stopTime="0.00" timeLoss="47.90" rerouteNo="0" devices="tripinfo_veh2" vType="passenger" speedFactor="1.08" vaporized=""/>
    <tripinfo id="veh15" depart="7.00" departLane="250295383#5_1" departPos="32.36" departSpeed="0.00" departDelay="0.55" arrival="104.00" arrivalLane="E9_1" arrivalPos="42.23" arrivalSpeed="4.40" duration="97.00" routeLength="395.64" waitingTime="0.00" waitingCount="0" stopTime="0.00" timeLoss="7.75" rerouteNo="0" devices="tripinfo_veh15" vType="bicycle" speedFactor="0.80" vaporized=""/>
    <personinfo id="ped2" depart="10.00" type="DEFAULT_PEDTYPE" speedFactor="0.97" duration="107.00" waitingTime="0.00" timeLoss="10.84" traveltime="107.00">
        <walk depart="10.00" departPos="0.00" arrival="117.00" arrivalPos="0.10" duration="107.00" routeLength="129.21" timeLoss="10.84" maxSpeed="1.34"/>
    </personinfo>
    <tripinfo id="veh102" depart="44.00" departLane="258551284#0_1" departPos="40.37" departSpeed="0.00" departDelay="0.14" arrival="117.00" arrivalLane="-43573547#0_1" arrivalPos="148.63" arrivalSpeed="14.18" duration="73.00" routeLength="879.87" waitingTime="0.00" waitingCount="0" stopTime="0.00" timeLoss="9.62" rerouteNo="0" devices="tripinfo_veh102" vType="passenger" speedFactor="1.02" vaporized=""/>
    <tripinfo id="veh48" depart="21.00" departLane="945794107_1" departPos="52.92" departSpeed="0.00" departDelay="0.36" arrival="119.00" arrivalLane="40330571#1_1" arrivalPos="2.26" arrivalSpeed="5.76" duration="98.00" routeLength="1174.48" waitingTime="0.00" waitingCount="0" stopTime="0.00" timeLoss="11.34" rerouteNo="0" devices="tripinfo_veh48" vType="passenger" speedFactor="1.02" vaporized=""/>
    <tripinfo id="veh153" depart="66.00" departLane="48778475#0_1" departPos="39.60" departSpeed="0.00" departDelay="0.21" arrival="119.00" arrivalLane="40305706#0_1" arrivalPos="32.26" arrivalSpeed="12.61" duration="53.00" routeLength="483.04" waitingTime="0.00" waitingCount="0" stopTime="0.00" timeLoss="11.42" rerouteNo="0" devices="tripinfo_veh153" vType="passenger" speedFactor="0.91" vaporized=""/>
    <tripinfo id="veh129" depart="56.00" departLane="223883702_1" departPos="156.52" departSpeed="0.00" departDelay="0.53" arrival="129.00" arrivalLane="43544179#4_1" arrivalPos="42.09" arrivalSpeed="13.83" duration="73.00" routeLength="857.33" waitingTime="0.00" waitingCount="0" stopTime="0.00" timeLoss="10.22" rerouteNo="0" devices="tripinfo_veh129" vType="motorcycle" speedFactor="1.01" vaporized=""/>
    <tripinfo id="veh26" depart="12.00" departLane="-859735387#1_0" departPos="7.34" departSpeed="0.00" departDelay="0.82" arrival="131.00" arrivalLane="48778525#1_1" arrivalPos="14.99" arrivalSpeed="12.90" duration="119.00" routeLength="889.77" waitingTime="17.00" waitingCount="1" stopTime="0.00" timeLoss="40.05" rerouteNo="0" devices="tripinfo_veh26" vType="motorcycle" speedFactor="1.02" vaporized=""/>
    <tripinfo id="veh52" depart="23.00" departLane="945793490#1_1" departPos="12.64" departSpeed="0.00" departDelay="0.64" arrival="134.00" arrivalLane="48778508#0_1" arrivalPos="11.33" arrivalSpeed="7.26" duration="111.00" routeLength="947.53" waitingTime="1.00" waitingCount="1" stopTime="0.00" timeLoss="22.66" rerouteNo="0" devices="tripinfo_veh52" vType="delivery" speedFactor="0.99" vaporized=""/>
    <tripinfo id="veh22" depart="10.00" departLane="-1250915723#2_1" departPos="39.17" departSpeed="0.00" departDelay="0.54" arrival="139.00" arrivalLane="92198452#2_1" arrivalPos="54.26" arrivalSpeed="15.15" duration="129.00" routeLength="1153.49" waitingTime="0.00" waitingCount="0" stopTime="0.00" timeLoss="15.98" rerouteNo="0" devices="tripinfo_veh22" vType="passenger" speedFactor="1.15" vaporized=""/>
    <tripinfo id="veh4" depart="2.00" departLane="48778508#0_1" departPos="8.42" departSpeed="0.00" departDelay="0.28" arrival="140.00" arrivalLane="43544184#3_1" arrivalPos="83.07" arrivalSpeed="6.60" duration="138.00" routeLength="1419.02" waitingTime="0.00" waitingCount="0" stopTime="0.00" timeLoss="35.79" rerouteNo="0" devices="tripinfo_veh4" vType="passenger" speedFactor="1.02" vaporized=""/>
    <tripinfo id="veh37" depart="16.00" departLane="-647698858_0" departPos="105.06" departSpeed="0.00" departDelay="0.09" arrival="144.00" arrivalLane="40299739#1_1" arrivalPos="75.95" arrivalSpeed="11.49" duration="128.00" routeLength="1011.00" waitingTime="22.00" waitingCount="2" stopTime="0.00" timeLoss="41.34" rerouteNo="0" devices="tripinfo_veh37" vType="passenger" speedFactor="0.88" vaporized=""/>
    <tripinfo id="veh23" depart="10.00" departLane="-1136289987_1" departPos="22.71" departSpeed="0.00" departDelay="0.11" arrival="145.00" arrivalLane="43546105#1_1" arrivalPos="277.32" arrivalSpeed="15.07" duration="135.00" routeLength="1568.76" waitingTime="0.00" waitingCount="0" stopTime="0.00" timeLoss="26.74" rerouteNo="0" devices="tripinfo_veh23" vType="passenger" speedFactor="1.12" vaporized=""/>
    <tripinfo id="veh58" depart="25.00" departLane="40330557#2_1" departPos="90.59" departSpeed="0.00" departDelay="0.06" arrival="150.00" arrivalLane="40265777#1_1" arrivalPos="65.39" arrivalSpeed="12.40" duration="125.00" routeLength="1363.37" waitingTime="0.00" waitingCount="0" stopTime="0.00" timeLoss="19.52" rerouteNo="0" devices="tripinfo_veh58" vType="delivery" speedFactor="0.96" vaporized=""/>
    <tripinfo id="veh131" depart="57.00" departLane="530103972_1" departPos="0.89" departSpeed="0.00" departDelay="0.67" arrival="152.00" arrivalLane="-48736620#5_1" arrivalPos="11.94" arrivalSpeed="13.35" duration="95.00" routeLength="928.50" waitingTime="0.00" waitingCount="0" stopTime="0.00" timeLoss="12.50" rerouteNo="0" devices="tripinfo_veh131" vType="delivery" speedFactor="1.00" vaporized=""/>
    <tripinfo id="veh243" depart="105.00" departLane="647755347#0_1" departPos="21.01" departSpeed="0.00" departDelay="0.51" arrival="155.00" arrivalLane="48797773_1" arrivalPos="23.80" arrivalSpeed="12.85" duration="50.00" routeLength="460.71" waitingTime="0.00" waitingCount="0" stopTime="0.00" timeLoss="10.64" rerouteNo="0" devices="tripinfo_veh243" vType="motorcycle" speedFactor="0.94" vaporized=""/>
    <tripinfo id="veh200" depart="86.00" departLane="40236220#1_1" departPos="14.30" departSpeed="0.00" departDelay="0.00" arrival="158.00" arrivalLane="-48778498#2_1" arrivalPos="98.02" arrivalSpeed="14.21" duration="72.00" routeLength="778.22" waitingTime="0.00" waitingCount="0" stopTime="0.00" timeLoss="18.11" rerouteNo="0" devices="tripinfo_veh200" vType="passenger" speedFactor="1.10" vaporized=""/>
    <tripinfo id="veh135" depart="59.00" departLane="-992542691_0" departPos="16.58" departSpeed="0.00" departDelay="0.95" arrival="160.00" arrivalLane="48778498#2_1" arrivalPos="98.03" arrivalSpeed="13.29" duration="101.00" routeLength="702.46" waitingTime="21.00" waitingCount="3" stopTime="0.00" timeLoss="44.93" rerouteNo="0" devices="tripinfo_veh135" vType="passenger" speedFactor="0.97" vaporized=""/>
    <tripinfo id="veh168" depart="73.00" departLane="40305706#1_1" departPos="10.51" departSpeed="0.00" departDelay="0.76" arrival="163.00" arrivalLane="222609004#0_1" arrivalPos="29.46" arrivalSpeed="13.41" duration="90.00" routeLength="827.00" waitingTime="0.00" waitingCount="0" stopTime="0.00" timeLoss="28.31" rerouteNo="0" devices="tripinfo_veh168" vType="passenger" speedFactor="1.03" vaporized=""/>
    <tripinfo id="veh100" depart="43.00" departLane="470207092#0_1" departPos="151.45" departSpeed="0.00" departDelay="0.00" arrival="167.00" arrivalLane="43546648#6_1" arrivalPos="186.87" arrivalSpeed="12.34" duration="124.00" routeLength="1128.90" waitingTime="0.00" waitingCount="0" stopTime="0.00" timeLoss="23.35" rerouteNo="0" devices="tripinfo_veh100" vType="motorcycle" speedFactor="0.94" vaporized=""/>
    <tripinfo id="veh149" depart="65.00" departLane="43573547#7_1" departPos="41.89" departSpeed="0.00" departDelay="0.93" arrival="167.00" arrivalLane="48778510#0_1" arrivalPos="7.19" arrivalSpeed="8.70" duration="102.00" routeLength="1147.90" waitingTime="0.00" waitingCount="0" stopTime="0.00" timeLoss="17.71" rerouteNo="0" devices="tripinfo_veh149" vType="passenger" speedFactor="1.03" vaporized=""/>
    <tripinfo id="veh242" depart="105.00" departLane="-43544197#7_1" departPos="35.41" departSpeed="0.00" departDelay="0.94" arrival="167.00" arrivalLane="-43546935#1_1" arrivalPos="51.35" arrivalSpeed="14.58" duration="62.00" routeLength="706.91" waitingTime="0.00" waitingCount="0" stopTime="0.00" timeLoss="13.52" rerouteNo="0" devices="tripinfo_veh242" vType="passenger" speedFactor="1.10" vaporized=""/>
    <tripinfo id="veh80" depart="35.00" departLane="-43544179#6_1" departPos="20.89" departSpeed="0.00" departDelay="0.60" arrival="171.00" arrivalLane="48778514#1_1" arrivalPos="264.87" arrivalSpeed="15.61" duration="136.00" routeLength="1722.34" waitingTime="0.00" waitingCount="0" stopTime="0.00" timeLoss="23.03" rerouteNo="0" devices="tripinfo_veh80" vType="passenger" speedFactor="1.14" vaporized=""/>
    <tripinfo id="veh206" depart="89.00" departLane="43546039#2_1" departPos="105.26" departSpeed="0.00" departDelay="0.42" arrival="172.00" arrivalLane="43544197#6_1" arrivalPos="40.81" arrivalSpeed="13.26" duration="83.00" routeLength="799.71" waitingTime="4.00" waitingCount="1" stopTime="0.00" timeLoss="21.27" rerouteNo="0" devices="tripinfo_veh206" vType="delivery" speedFactor="0.98" vaporized=""/>
    <tripinfo id="veh49" depart="22.00" departLane="48736638#0_1" departPos="63.50" departSpeed="0.00" departDelay="0.93" arrival="176.00" arrivalLane="647698858_0" arrivalPos="106.19" arrivalSpeed="4.73" duration="154.00" routeLength="1076.55" waitingTime="36.00" waitingCount="1" stopTime="0.00" timeLoss="60.95" rerouteNo="0" devices="tripinfo_veh49" vType="passenger" speedFactor="1.00" vaporized=""/>
    <tripinfo id="veh1" depart="1.00" departLane="40236203#2_1" departPos="0.50" departSpeed="0.00" departDelay="0.57" arrival="178.00" arrivalLane="-43573573#3_1" arrivalPos="71.51" arrivalSpeed="6.82" duration="177.00" routeLength="1940.17" waitingTime="0.00" waitingCount="0" stopTime="0.00" timeLoss="42.67" rerouteNo="0" devices="tripinfo_veh1" vType="passenger" speedFactor="1.08" vaporized=""/>
    <tripinfo id="veh115" depart="50.00" departLane="859734514#0_0" departPos="19.34" departSpeed="0.00" departDelay="0.55" arrival="178.00" arrivalLane="-40330557#0_1" arrivalPos="52.98" arrivalSpeed="13.29" duration="128.00" routeLength="1296.71" waitingTime="0.00" waitingCount="0" stopTime="0.00" timeLoss="19.67" rerouteNo="0" devices="tripinfo_veh115" vType="passenger" speedFactor="1.02" vaporized=""/>
    <personinfo id="ped24" depart="120.00" type="DEFAULT_PEDTYPE" speedFactor="1.06" duration="59.00" waitingTime="0.00" timeLoss="6.79" traveltime="59.00">
        <walk depart="120.00" departPos="0.00" arrival="179.00" arrivalPos="11.12" duration="59.00" routeLength="77.16" timeLoss="6.79" maxSpeed="1.48"/>
    </personinfo>
    <personinfo id="ped20" depart="100.00" type="DEFAULT_PEDTYPE" speedFactor="0.86" duration="80.00" waitingTime="0.00" timeLoss="8.42" traveltime="80.00">
        <walk depart="100.00" departPos="0.00" arrival="180.00" arrivalPos="9.26" duration="80.00" routeLength="85.07" timeLoss="8.42" maxSpeed="1.19"/>
    </personinfo>
    <tripinfo id="veh133" depart="58.00" departLane="-40299271_1" departPos="27.09" departSpeed="0.00" departDelay="0.81" arrival="182.00" arrivalLane="-273835688_1" arrivalPos="177.49" arrivalSpeed="10.63" duration="124.00" routeLength="1081.77" waitingTime="2.00" waitingCount="1" stopTime="0.00" timeLoss="23.45" rerouteNo="0" devices="tripinfo_veh133" vType="passenger" speedFactor="0.80" vaporized=""/>
    <personinfo id="ped6" depart="30.00" type="DEFAULT_PEDTYPE" speedFactor="0.90" duration="153.00" waitingTime="0.00" timeLoss="21.89" traveltime="153.00">
        <walk depart="30.00" departPos="0.00" arrival="183.00" arrivalPos="5.99" duration="153.00" routeLength="163.90" timeLoss="21.89" maxSpeed="1.25"/>
    </personinfo>
    <tripinfo id="veh148" depart="64.00" departLane="383582519_0" departPos="23.55" departSpeed="0.00" departDelay="0.36" arrival="184.00" arrivalLane="-48736611#1_1" arrivalPos="4.90" arrivalSpeed="5.77" duration="120.00" routeLength="863.99" waitingTime="23.00" waitingCount="1" stopTime="0.00" timeLoss="43.10" rerouteNo="0" devices="tripinfo_veh148" vType="motorcycle" speedFactor="0.97" vaporized=""/>
    <tripinfo id="veh162" depart="70.00" departLane="1135856957_0" departPos="2.05" departSpeed="0.00" departDelay="0.34" arrival="184.00" arrivalLane="647621858_0" arrivalPos="84.34" arrivalSpeed="5.90" duration="114.00" routeLength="815.48" waitingTime="22.00" waitingCount="1" stopTime="0.00" timeLoss="46.77" rerouteNo="0" devices="tripinfo_veh162" vType="passenger" speedFactor="1.15" vaporized=""/>
    <tripinfo id="veh172" depart="74.00" departLane="-258551297#1_0" departPos="45.50" departSpeed="0.00" departDelay="0.04" arrival="184.00" arrivalLane="48736616#0_1" arrivalPos="4.31" arrivalSpeed="5.34" duration="110.00" routeLength="1003.59" waitingTime="0.00" waitingCount="0" stopTime="0.00" timeLoss="21.83" rerouteNo="0" devices="tripinfo_veh172" vType="motorcycle" speedFactor="1.00" vaporized=""/>
    <tripinfo id="veh74" depart="32.00" departLane="43545645#0_1" departPos="24.06" departSpeed="0.00" departDelay="0.18" arrival="185.00" arrivalLane="222605089#2_1" arrivalPos="24.42" arrivalSpeed="11.84" duration="153.00" routeLength="1593.57" waitingTime="0.00" waitingCount="0" stopTime="0.00" timeLoss="26.48" rerouteNo="0" devices="tripinfo_veh74" vType="motorcycle" speedFactor="0.94" vaporized=""/>
    <tripinfo id="veh8" depart="4.00" departLane="-43544179#1_1" departPos="24.46" departSpeed="0.00" departDelay="0.56" arrival="186.00" arrivalLane="43544197#6_1" arrivalPos="40.81" arrivalSpeed="13.58" duration="182.00" routeLength="1907.48" waitingTime="16.00" waitingCount="1" stopTime="0.00" timeLoss="55.63" rerouteNo="0" devices="tripinfo_veh8" vType="passenger" speedFactor="1.12" vaporized=""/>
    <tripinfo id="veh213" depart="92.00" departLane="-859732803#1_0" departPos="21.87" departSpeed="0.00" departDelay="0.41" arrival="187.00" arrivalLane="40266621_1" arrivalPos="38.01" arrivalSpeed="13.72" duration="95.00" routeLength="842.50" waitingTime="3.00" waitingCount="2" stopTime="0.00" timeLoss="27.38" rerouteNo="0" devices="tripinfo_veh213" vType="passenger" speedFactor="1.01" vaporized=""/>
    <tripinfo id="veh40" depart="18.00" departLane="48778495#1_1" departPos="4.79" departSpeed="0.00" departDelay="0.80" arrival="188.00" arrivalLane="-92198453#3_1" arrivalPos="0.20" arrivalSpeed="14.18" duration="170.00" routeLength="1911.16" waitingTime="8.00" waitingCount="2" stopTime="0.00" timeLoss="35.05" rerouteNo="0" devices="tripinfo_veh40" vType="passenger" speedFactor="1.05" vaporized=""/>
    <tripinfo id="veh62" depart="27.00" departLane="-48736655_1" departPos="14.33" departSpeed="0.00" departDelay="0.34" arrival="188.00" arrivalLane="352818096#0_0" arrivalPos="2.76" arrivalSpeed="10.23" duration="161.00" routeLength="1806.90" waitingTime="13.00" waitingCount="1" stopTime="0.00" timeLoss="33.29" rerouteNo="0" devices="tripinfo_veh62" vType="passenger" speedFactor="1.06" vaporized=""/>
    <tripinfo id="veh112" depart="49.00" departLane="48778508#3_1" departPos="0.78" departSpeed="0.00" departDelay="0.84" arrival="188.00" arrivalLane="43544138#1_1" arrivalPos="28.80" arrivalSpeed="12.61" duration="139.00" routeLength="1123.39" waitingTime="33.00" waitingCount="1" stopTime="0.00" timeLoss="58.16" rerouteNo="0" devices="tripinfo_veh112" vType="motorcycle" speedFactor="1.04" vaporized=""/>
    <tripinfo id="veh76" depart="33.00" departLane="250295380#1_1" departPos="43.27" departSpeed="0.00" departDelay="0.32" arrival="190.00" arrivalLane="48778487#1_1" arrivalPos="345.27" arrivalSpeed="13.68" duration="157.00" routeLength="1673.51" waitingTime="16.00" waitingCount="1" stopTime="0.00" timeLoss="40.35" rerouteNo="0" devices="tripinfo_veh76" vType="passenger" speedFactor="1.05" vaporized=""/>
    <tripinfo id="veh41" depart="18.00" departLane="222605084#7_1" departPos="8.85" departSpeed="0.00" departDelay="0.37" arrival="192.00" arrivalLane="-48736650#1_1" arrivalPos="15.41" arrivalSpeed="12.97" duration="174.00" routeLength="1373.21" waitingTime="8.00" waitingCount="1" stopTime="0.00" timeLoss="46.27" rerouteNo="0" devices="tripinfo_veh41" vType="motorcycle" speedFactor="1.00" vaporized=""/>
    <tripinfo id="veh19" depart="9.00" departLane="143207979#8_1" departPos="11.65" departSpeed="0.00" departDelay="0.83" arrival="193.00" arrivalLane="383582508#1_0" arrivalPos="33.33" arrivalSpeed="4.78" duration="184.00" routeLength="1842.18" waitingTime="0.00" waitingCount="0" stopTime="0.00" timeLoss="24.31" rerouteNo="0" devices="tripinfo_veh19" vType="passenger" speedFactor="1.03" vaporized=""/>
    <tripinfo id="veh24" depart="11.00" departLane="-353939570#9_1" departPos="70.34" departSpeed="0.00" departDelay="0.68" arrival="193.00" arrivalLane="-1054663939_1" arrivalPos="21.68" arrivalSpeed="7.86" duration="182.00" routeLength="2170.67" waitingTime="0.00" waitingCount="0" stopTime="0.00" timeLoss="19.15" rerouteNo="0" devices="tripinfo_veh24" vType="passenger" speedFactor="0.99" vaporized=""/>
    <tripinfo id="veh130" depart="56.00" departLane="-48736610#3_1" departPos="28.17" departSpeed="0.00" departDelay="0.10" arrival="193.00" arrivalLane="48736621#0_1" arrivalPos="15.22" arrivalSpeed="9.77" duration="137.00" routeLength="504.14" waitingTime="66.00" waitingCount="2" stopTime="0.00" timeLoss="87.10" rerouteNo="0" devices="tripinfo_veh130" vType="passenger" speedFactor="0.91" vaporized=""/>
    <tripinfo id="veh195" depart="84.00" departLane="-48778475#2_1" departPos="4.99" departSpeed="0.00" departDelay="0.15" arrival="193.00" arrivalLane="-48778441#0_1" arrivalPos="36.99" arrivalSpeed="14.27" duration="109.00" routeLength="1235.27" waitingTime="0.00" waitingCount="0" stopTime="0.00" timeLoss="22.33" rerouteNo="0" devices="tripinfo_veh195" vType="delivery" speedFactor="1.08" vaporized=""/>
    <tripinfo id="veh236" depart="102.00" departLane="-40236220#0_1" departPos="22.79" departSpeed="0.00" departDelay="0.52" arrival="193.00" arrivalLane="-40304754#5_1" arrivalPos="153.81" arrivalSpeed="8.16" duration="91.00" routeLength="623.16" waitingTime="8.00" waitingCount="1" stopTime="0.00" timeLoss="42.98" rerouteNo="0" devices="tripinfo_veh236" vType="delivery" speedFactor="1.01" vaporized=""/>
    <tripinfo id="veh5" depart="3.00" departLane="143207979#0_1" departPos="13.52" departSpeed="0.00" departDelay="0.85" arrival="194.00" arrivalLane="984508805_0" arrivalPos="34.81" arrivalSpeed="4.82" duration="191.00" routeLength="2059.05" waitingTime="7.00" waitingCount="1" stopTime="0.00" timeLoss="40.24" rerouteNo="0" devices="tripinfo_veh5" vType="delivery" speedFactor="1.05" vaporized=""/>
    <tripinfo id="veh223" depart="96.00" departLane="43545645#0_1" departPos="120.64" departSpeed="0.00" departDelay="0.11" arrival="197.00" arrivalLane="48778521#1_1" arrivalPos="26.80" arrivalSpeed="7.77" duration="101.00" routeLength="1053.11" waitingTime="0.00" waitingCount="0" stopTime="0.00" timeLoss="15.73" rerouteNo="0" devices="tripinfo_veh223" vType="delivery" speedFactor="0.99" vaporized=""/>
    <tripinfo id="veh78" depart="34.00" departLane="40236220#2_1" departPos="2.10" departSpeed="0.00" departDelay="0.46" arrival="198.00" arrivalLane="-43546460#7_1" arrivalPos="93.76" arrivalSpeed="11.90" duration="164.00" routeLength="1694.79" waitingTime="0.00" waitingCount="0" stopTime="0.00" timeLoss="17.91" rerouteNo="0" devices="tripinfo_veh78" vType="passenger" speedFactor="0.86" vaporized=""/>
    <tripinfo id="veh306" depart="132.00" departLane="-43546039#2_1" departPos="130.51" departSpeed="0.00" departDelay="0.42" arrival="199.00" arrivalLane="-143207979#3_1" arrivalPos="38.67" arrivalSpeed="11.66" duration="67.00" routeLength="510.78" waitingTime="0.00" waitingCount="0" stopTime="0.00" timeLoss="23.86" rerouteNo="0" devices="tripinfo_veh306" vType="passenger" speedFactor="0.90" vaporized=""/>
    <tripinfo id="veh3" depart="2.00" departLane="470207092#0_1" departPos="9.53" departSpeed="0.00" departDelay="0.71" arrival="200.00" arrivalLane="43547296#1_1" arrivalPos="14.14" arrivalSpeed="10.61" duration="198.00" routeLength="1795.60" waitingTime="2.00" waitingCount="1" stopTime="0.00" timeLoss="30.37" rerouteNo="0" devices="tripinfo_veh3" vType="passenger" speedFactor="0.94" vaporized=""/>
    <tripinfo id="veh65" depart="28.00" departLane="48788485#5_1" departPos="35.27" departSpeed="0.00" departDelay="0.05" arrival="201.00" arrivalLane="-43573547#7_1" arrivalPos="83.95" arrivalSpeed="11.48" duration="173.00" routeLength="1949.03" waitingTime="0.00" waitingCount="0" stopTime="0.00" timeLoss="18.43" rerouteNo="0" devices="tripinfo_veh65" vType="passenger" speedFactor="0.92" vaporized=""/>
    <tripinfo id="veh340" depart="147.00" departLane="-48778527_1" departPos="38.97" departSpeed="0.00" departDelay="0.80" arrival="201.00" arrivalLane="-43573573#4_1" arrivalPos="73.63" arrivalSpeed="13.83" duration="54.00" routeLength="541.36" waitingTime="0.00" waitingCount="0" stopTime="0.00" timeLoss="15.13" rerouteNo="0" devices="tripinfo_veh340" vType="passenger" speedFactor="1.07" vaporized=""/>
    <tripinfo id="veh271" depart="117.00" departLane="-43545645#0_1" departPos="190.20" departSpeed="0.00" departDelay="0.47" arrival="203.00" arrivalLane="-143207979#5_1" arrivalPos="42.22" arrivalSpeed="11.93" duration="86.00" routeLength="644.60" waitingTime="18.00" waitingCount="1" stopTime="0.00" timeLoss="33.25" rerouteNo="0" devices="tripinfo_veh271" vType="passenger" speedFactor="0.94" vaporized=""/>
    <tripinfo id="veh73" depart="32.00" departLane="258551297#1_0" departPos="107.33" departSpeed="0.00" departDelay="0.61" arrival="206.00" arrivalLane="-945793490#5_1" arrivalPos="110.67" arrivalSpeed="4.60" duration="174.00" routeLength="1466.53" waitingTime="8.00" waitingCount="1" stopTime="0.00" timeLoss="37.98" rerouteNo="0" devices="tripinfo_veh73" vType="passenger" speedFactor="1.01" vaporized=""/>
    <tripinfo id="veh158" depart="68.00" departLane="-43573573#2_1" departPos="73.59" departSpeed="0.00" departDelay="0.06" arrival="207.00" arrivalLane="-250295380#0_1" arrivalPos="168.50" arrivalSpeed="14.41" duration="139.00" routeLength="1652.47" waitingTime="5.00" waitingCount="1" stopTime="0.00" timeLoss="26.34" rerouteNo="0" devices="tripinfo_veh158" vType="passenger" speedFactor="1.07" vaporized=""/>
    <tripinfo id="veh227" depart="98.00" departLane="40299264#2_1" departPos="9.55" departSpeed="0.00" departDelay="0.39" arrival="210.00" arrivalLane="-48736613#3_1" arrivalPos="41.47" arrivalSpeed="11.90" duration="112.00" routeLength="1144.95" waitingTime="3.00" waitingCount="1" stopTime="0.00" timeLoss="20.52" rerouteNo="0" devices="tripinfo_veh227" vType="motorcycle" speedFactor="0.93" vaporized=""/>
    <tripinfo id="veh222" depart="96.00" departLane="-859732801#0_1" departPos="17.88" departSpeed="0.00" departDelay="0.54" arrival="213.00" arrivalLane="43546105#1_1" arrivalPos="277.32" arrivalSpeed="12.54" duration="117.00" routeLength="1304.23" waitingTime="0.00" waitingCount="0" stopTime="0.00" timeLoss="14.97" rerouteNo="0" devices="tripinfo_veh222" vType="passenger" speedFactor="0.95" vaporized=""/>
    <tripinfo id="veh157" depart="68.00" departLane="-48736624#0_1" departPos="59.54" departSpeed="0.00" departDelay="0.49" arrival="214.00" arrivalLane="48797766#0_1" arrivalPos="21.21" arrivalSpeed="11.54" duration="146.00" routeLength="1041.32" waitingTime="31.00" waitingCount="2" stopTime="0.00" timeLoss="66.06" rerouteNo="0" devices="tripinfo_veh157" vType="delivery" speedFactor="0.99" vaporized=""/>
    <tripinfo id="veh325" depart="140.00" departLane="48778473#2_1" departPos="31.41" departSpeed="0.00" departDelay="0.25" arrival="216.00" arrivalLane="40309190_1" arrivalPos="61.38" arrivalSpeed="12.41" duration="76.00" routeLength="686.09" waitingTime="2.00" waitingCount="1" stopTime="0.00" timeLoss="18.50" rerouteNo="0" devices="tripinfo_veh325" vType="motorcycle" speedFactor="0.91" vaporized=""/>
    <tripinfo id="veh214" depart="93.00" departLane="-222609002#2_1" departPos="12.24" departSpeed="0.00" departDelay="0.98" arrival="218.00" arrivalLane="-383582518#1_0" arrivalPos="15.40" arrivalSpeed="5.39" duration="125.00" routeLength="1316.67" waitingTime="3.00" waitingCount="1" stopTime="0.00" timeLoss="32.87" rerouteNo="0" devices="tripinfo_veh214" vType="passenger" speedFactor="1.12" vaporized=""/>
    <tripinfo id="veh66" depart="29.00" departLane="1136284448_1" departPos="0.40" departSpeed="0.00" departDelay="0.62" arrival="220.00" arrivalLane="-945793490#0_1" arrivalPos="55.23" arrivalSpeed="5.05" duration="191.00" routeLength="1318.64" waitingTime="43.00" waitingCount="2" stopTime="0.00" timeLoss="74.21" rerouteNo="0" devices="tripinfo_veh66" vType="passenger" speedFactor="1.09" vaporized=""/>
    <tripinfo id="veh138" depart="60.00" departLane="-92198453#3_1" departPos="0.09" departSpeed="0.00" departDelay="0.66" arrival="220.00" arrivalLane="43544001#3_1" arrivalPos="41.26" arrivalSpeed="13.61" duration="160.00" routeLength="1945.97" waitingTime="0.00" waitingCount="0" stopTime="0.00" timeLoss="15.55" rerouteNo="0" devices="tripinfo_veh138" vType="passenger" speedFactor="0.98" vaporized=""/>
    <tripinfo id="veh176" depart="76.00" departLane="1135856746#2_1" departPos="400.72" departSpeed="0.00" departDelay="0.32" arrival="220.00" arrivalLane="48778475#1_1" arrivalPos="25.99" arrivalSpeed="13.20" duration="144.00" routeLength="968.89" waitingTime="49.00" waitingCount="2" stopTime="0.00" timeLoss="73.84" rerouteNo="0" devices="tripinfo_veh176" vType="passenger" speedFactor="1.04" vaporized=""/>