<?xml version="1.0" encoding="UTF-8"?>

<!-- generated on 2025-06-12 12:33:40 by Eclipse SUMO sumo Version 1.22.0
<sumoConfiguration xmlns:xsi="http://www.w3.org/2001/XMLSchema-instance" xsi:noNamespaceSchemaLocation="http://sumo.dlr.de/xsd/sumoConfiguration.xsd">

    <input>
        <net-file value="osm.net.xml"/>
        <route-files value="full.rou.xml, ped.rou.xml, truck.rou.xml"/>
        <additional-files value="osm.poly.xml, vtypes.xml"/>
    </input>

    <output>
        <summary-output value="summary.xml"/>
        <tripinfo-output value="E:\licenta\oras-mediu\2025-06-05-11-45-23\baseline_outputs\tripinfo_baseline_ep19.xml"/>
    </output>

    <processing>
        <ignore-route-errors value="true"/>
        <tls.actuated.jam-threshold value="30"/>
    </processing>

    <routing>
        <device.rerouting.adaptation-steps value="18"/>
        <device.rerouting.adaptation-interval value="10"/>
    </routing>

    <report>
        <verbose value="true"/>
        <duration-log.statistics value="true"/>
        <no-step-log value="true"/>
    </report>

    <traci_server>
        <remote-port value="64546"/>
    </traci_server>

    <gui_only>
        <gui-settings-file value="osm.view.xml"/>
    </gui_only>

</sumoConfiguration>
-->

<tripinfos xmlns:xsi="http://www.w3.org/2001/XMLSchema-instance" xsi:noNamespaceSchemaLocation="http://sumo.dlr.de/xsd/tripinfo_file.xsd">
    <tripinfo id="veh3" depart="3.00" departLane="-48736624#1_1" departPos="2.43" departSpeed="0.00" departDelay="0.81" arrival="71.00" arrivalLane="-48736607#0_1" arrivalPos="36.67" arrivalSpeed="13.41" duration="68.00" routeLength="757.52" waitingTime="0.00" waitingCount="0" stopTime="0.00" timeLoss="12.23" rerouteNo="0" devices="tripinfo_veh3" vType="passenger" speedFactor="1.01" vaporized=""/>
    <tripinfo id="veh67" depart="49.00" departLane="48778446#0_1" departPos="14.85" departSpeed="0.00" departDelay="0.09" arrival="96.00" arrivalLane="48736638#2_1" arrivalPos="27.21" arrivalSpeed="12.28" duration="47.00" routeLength="341.20" waitingTime="0.00" waitingCount="0" stopTime="0.00" timeLoss="10.78" rerouteNo="0" devices="tripinfo_veh67" vType="passenger" speedFactor="1.01" vaporized=""/>
    <tripinfo id="veh7" depart="6.00" departLane="-859729932_0" departPos="37.81" departSpeed="0.00" departDelay="0.89" arrival="97.00" arrivalLane="859728207_0" arrivalPos="18.62" arrivalSpeed="4.41" duration="91.00" routeLength="475.09" waitingTime="8.00" waitingCount="1" stopTime="0.00" timeLoss="26.88" rerouteNo="0" devices="tripinfo_veh7" vType="passenger" speedFactor="0.90" vaporized=""/>
    <tripinfo id="veh28" depart="21.00" departLane="-647226815#0_1" departPos="12.87" departSpeed="0.00" departDelay="0.56" arrival="97.00" arrivalLane="-43544179#11_1" arrivalPos="85.20" arrivalSpeed="14.87" duration="76.00" routeLength="853.57" waitingTime="0.00" waitingCount="0" stopTime="0.00" timeLoss="17.18" rerouteNo="0" devices="tripinfo_veh28" vType="passenger" speedFactor="1.10" vaporized=""/>
    <personinfo id="ped9" depart="45.00" type="DEFAULT_PEDTYPE" speedFactor="1.08" duration="59.00" waitingTime="0.00" timeLoss="6.99" traveltime="59.00">
        <walk depart="45.00" departPos="0.00" arrival="104.00" arrivalPos="15.80" duration="59.00" routeLength="77.95" timeLoss="6.99" maxSpeed="1.50"/>
    </personinfo>
    <personinfo id="ped8" depart="40.00" type="DEFAULT_PEDTYPE" speedFactor="0.90" duration="75.00" waitingTime="0.00" timeLoss="7.93" traveltime="75.00">
        <walk depart="40.00" departPos="0.00" arrival="115.00" arrivalPos="10.26" duration="75.00" routeLength="83.96" timeLoss="7.93" maxSpeed="1.25"/>
    </personinfo>
    <tripinfo id="veh21" depart="16.00" departLane="-40299276#1_1" departPos="57.37" departSpeed="0.00" departDelay="0.67" arrival="126.00" arrivalLane="-48736617#0_1" arrivalPos="24.82" arrivalSpeed="13.01" duration="110.00" routeLength="1189.72" waitingTime="0.00" waitingCount="0" stopTime="0.00" timeLoss="30.49" rerouteNo="0" devices="tripinfo_veh21" vType="passenger" speedFactor="1.15" vaporized=""/>
    <tripinfo id="veh81" depart="60.00" departLane="-48778517#1_1" departPos="2.88" departSpeed="0.00" departDelay="0.87" arrival="128.00" arrivalLane="-383582506_0" arrivalPos="44.83" arrivalSpeed="4.69" duration="68.00" routeLength="572.09" waitingTime="0.00" waitingCount="0" stopTime="0.00" timeLoss="15.22" rerouteNo="0" devices="tripinfo_veh81" vType="passenger" speedFactor="1.08" vaporized=""/>
    <tripinfo id="veh106" depart="78.00" departLane="289113778#1_1" departPos="263.89" departSpeed="0.00" departDelay="0.62" arrival="129.00" arrivalLane="43544197#1_1" arrivalPos="41.01" arrivalSpeed="14.35" duration="51.00" routeLength="539.79" waitingTime="0.00" waitingCount="0" stopTime="0.00" timeLoss="13.55" rerouteNo="0" devices="tripinfo_veh106" vType="passenger" speedFactor="1.12" vaporized=""/>
    <tripinfo id="veh9" depart="7.00" departLane="-859732803#1_0" departPos="22.88" departSpeed="0.00" departDelay="0.43" arrival="138.00" arrivalLane="-43547256#2_1" arrivalPos="217.44" arrivalSpeed="13.26" duration="131.00" routeLength="1542.92" waitingTime="0.00" waitingCount="0" stopTime="0.00" timeLoss="17.54" rerouteNo="0" devices="tripinfo_veh9" vType="passenger" speedFactor="1.04" vaporized=""/>
    <tripinfo id="veh57" depart="42.00" departLane="996984132_0" departPos="77.13" departSpeed="0.00" departDelay="0.39" arrival="140.00" arrivalLane="-43546688#1_1" arrivalPos="71.52" arrivalSpeed="14.50" duration="98.00" routeLength="1211.07" waitingTime="0.00" waitingCount="0" stopTime="0.00" timeLoss="15.03" rerouteNo="0" devices="tripinfo_veh57" vType="passenger" speedFactor="1.12" vaporized=""/>
    <tripinfo id="veh114" depart="84.00" departLane="43544197#4_1" departPos="8.44" departSpeed="0.00" departDelay="0.78" arrival="143.00" arrivalLane="-43546935#0_1" arrivalPos="223.94" arrivalSpeed="13.53" duration="59.00" routeLength="562.78" waitingTime="3.00" waitingCount="1" stopTime="0.00" timeLoss="16.87" rerouteNo="0" devices="tripinfo_veh114" vType="passenger" speedFactor="1.02" vaporized=""/>
    <tripinfo id="veh26" depart="19.00" departLane="-48736639#1_1" departPos="23.72" departSpeed="0.00" departDelay="0.02" arrival="156.00" arrivalLane="40236203#2_1" arrivalPos="10.97" arrivalSpeed="12.09" duration="137.00" routeLength="1513.86" waitingTime="0.00" waitingCount="0" stopTime="0.00" timeLoss="25.47" rerouteNo="0" devices="tripinfo_veh26" vType="motorcycle" speedFactor="1.02" vaporized=""/>
    <tripinfo id="veh64" depart="47.00" departLane="33909936#0_1" departPos="9.61" departSpeed="0.00" departDelay="0.28" arrival="158.00" arrivalLane="43573573#4_1" arrivalPos="73.62" arrivalSpeed="9.64" duration="111.00" routeLength="939.44" waitingTime="27.00" waitingCount="2" stopTime="0.00" timeLoss="46.94" rerouteNo="0" devices="tripinfo_veh64" vType="passenger" speedFactor="1.08" vaporized=""/>
    <tripinfo id="veh44" depart="33.00" departLane="48797765#0_1" departPos="13.99" departSpeed="0.00" departDelay="0.88" arrival="162.00" arrivalLane="-258551281_1" arrivalPos="67.94" arrivalSpeed="12.60" duration="129.00" routeLength="1324.70" waitingTime="0.00" waitingCount="0" stopTime="0.00" timeLoss="21.01" rerouteNo="0" devices="tripinfo_veh44" vType="delivery" speedFactor="0.98" vaporized=""/>
    <tripinfo id="veh113" depart="83.00" departLane="992542691_0" departPos="14.41" departSpeed="0.00" departDelay="0.51" arrival="162.00" arrivalLane="1250915720#6_1" arrivalPos="63.45" arrivalSpeed="4.73" duration="79.00" routeLength="421.66" waitingTime="0.00" waitingCount="0" stopTime="0.00" timeLoss="13.73" rerouteNo="0" devices="tripinfo_veh113" vType="emergency" speedFactor="1.00" vaporized=""/>
    <tripinfo id="veh162" depart="119.00" departLane="48778508#2_1" departPos="0.33" departSpeed="0.00" departDelay="0.74" arrival="163.00" arrivalLane="-48778508#4_1" arrivalPos="24.74" arrivalSpeed="15.26" duration="44.00" routeLength="302.37" waitingTime="3.00" waitingCount="1" stopTime="0.00" timeLoss="18.54" rerouteNo="0" devices="tripinfo_veh162" vType="passenger" speedFactor="1.15" vaporized=""/>
    <tripinfo id="veh37" depart="28.00" departLane="-43546088_1" departPos="34.55" departSpeed="0.00" departDelay="0.99" arrival="164.00" arrivalLane="-43573547#1_1" arrivalPos="26.16" arrivalSpeed="11.03" duration="136.00" routeLength="1377.39" waitingTime="0.00" waitingCount="0" stopTime="0.00" timeLoss="19.01" rerouteNo="0" devices="tripinfo_veh37" vType="passenger" speedFactor="0.88" vaporized=""/>
    <tripinfo id="veh19" depart="14.00" departLane="48736664#0_1" departPos="41.72" departSpeed="0.00" departDelay="0.13" arrival="170.00" arrivalLane="-174818018#0_0" arrivalPos="523.40" arrivalSpeed="4.13" duration="156.00" routeLength="771.63" waitingTime="0.00" waitingCount="0" stopTime="0.00" timeLoss="27.18" rerouteNo="0" devices="tripinfo_veh19" vType="passenger" speedFactor="0.89" vaporized=""/>
    <tripinfo id="veh34" depart="25.00" departLane="40236220#1_1" departPos="8.92" departSpeed="0.00" departDelay="0.18" arrival="173.00" arrivalLane="40330571#1_1" arrivalPos="2.26" arrivalSpeed="7.49" duration="148.00" routeLength="1239.14" waitingTime="29.00" waitingCount="1" stopTime="0.00" timeLoss="54.05" rerouteNo="0" devices="tripinfo_veh34" vType="emergency" speedFactor="1.00" vaporized=""/>
    <tripinfo id="veh54" depart="40.00" departLane="383582854#2_0" departPos="8.22" departSpeed="0.00" departDelay="0.58" arrival="174.00" arrivalLane="48797769_1" arrivalPos="15.35" arrivalSpeed="10.18" duration="134.00" routeLength="1397.95" waitingTime="0.00" waitingCount="0" stopTime="0.00" timeLoss="27.44" rerouteNo="0" devices="tripinfo_veh54" vType="passenger" speedFactor="1.02" vaporized=""/>
    <tripinfo id="veh35" depart="26.00" departLane="33913538#3_1" departPos="3.42" departSpeed="0.00" departDelay="0.45" arrival="176.00" arrivalLane="1136301814#0_1" arrivalPos="40.78" arrivalSpeed="14.67" duration="150.00" routeLength="1465.13" waitingTime="29.00" waitingCount="1" stopTime="0.00" timeLoss="51.02" rerouteNo="0" devices="tripinfo_veh35" vType="passenger" speedFactor="1.09" vaporized=""/>
    <tripinfo id="veh135" depart="99.00" departLane="1135856746#2_1" departPos="259.46" departSpeed="0.00" departDelay="0.45" arrival="178.00" arrivalLane="48736640#1_1" arrivalPos="66.91" arrivalSpeed="14.39" duration="79.00" routeLength="938.34" waitingTime="0.00" waitingCount="0" stopTime="0.00" timeLoss="15.49" rerouteNo="0" devices="tripinfo_veh135" vType="passenger" speedFactor="1.13" vaporized=""/>
    <tripinfo id="veh136" depart="100.00" departLane="1135772296#0_0" departPos="15.18" departSpeed="0.00" departDelay="0.72" arrival="178.00" arrivalLane="-250295383#3_1" arrivalPos="11.99" arrivalSpeed="12.47" duration="78.00" routeLength="570.25" waitingTime="2.00" waitingCount="1" stopTime="0.00" timeLoss="19.13" rerouteNo="0" devices="tripinfo_veh136" vType="passenger" speedFactor="0.97" vaporized=""/>
    <tripinfo id="veh167" depart="122.00" departLane="43573478_1" departPos="139.85" departSpeed="0.00" departDelay="0.09" arrival="181.00" arrivalLane="-43546519#0_1" arrivalPos="426.07" arrivalSpeed="11.82" duration="59.00" routeLength="562.47" waitingTime="0.00" waitingCount="0" stopTime="0.00" timeLoss="9.59" rerouteNo="0" devices="tripinfo_veh167" vType="passenger" speedFactor="0.87" vaporized=""/>
    <tripinfo id="veh55" depart="41.00" departLane="43546688#0_1" departPos="0.26" departSpeed="0.00" departDelay="0.85" arrival="184.00" arrivalLane="-492965073#8_1" arrivalPos="91.38" arrivalSpeed="12.97" duration="143.00" routeLength="905.34" waitingTime="61.00" waitingCount="1" stopTime="0.00" timeLoss="74.16" rerouteNo="0" devices="tripinfo_veh55" vType="delivery" speedFactor="0.96" vaporized=""/>
    <tripinfo id="veh125" depart="92.00" departLane="996984134_0" departPos="74.94" departSpeed="0.00" departDelay="0.75" arrival="184.00" arrivalLane="996489799#0_0" arrivalPos="0.20" arrivalSpeed="4.38" duration="92.00" routeLength="989.56" waitingTime="0.00" waitingCount="0" stopTime="0.00" timeLoss="11.83" rerouteNo="0" devices="tripinfo_veh125" vType="passenger" speedFactor="0.94" vaporized=""/>
    <tripinfo id="veh61" depart="45.00" departLane="-258551321_1" departPos="77.12" departSpeed="0.00" departDelay="0.47" arrival="187.00" arrivalLane="-48778499#0_1" arrivalPos="44.27" arrivalSpeed="13.89" duration="142.00" routeLength="923.70" waitingTime="46.00" waitingCount="2" stopTime="0.00" timeLoss="76.30" rerouteNo="0" devices="tripinfo_veh61" vType="passenger" speedFactor="1.09" vaporized=""/>
    <tripinfo id="veh6" depart="5.00" departLane="578560104#6_1" departPos="0.61" departSpeed="0.00" departDelay="0.62" arrival="188.00" arrivalLane="-530103975#0_1" arrivalPos="70.63" arrivalSpeed="14.61" duration="183.00" routeLength="1411.92" waitingTime="66.00" waitingCount="1" stopTime="0.00" timeLoss="90.63" rerouteNo="0" devices="tripinfo_veh6" vType="passenger" speedFactor="1.12" vaporized=""/>
    <tripinfo id="veh105" depart="77.00" departLane="1136119743#0_1" departPos="4.18" departSpeed="0.00" departDelay="0.35" arrival="190.00" arrivalLane="222609002#4_1" arrivalPos="52.31" arrivalSpeed="13.24" duration="113.00" routeLength="907.32" waitingTime="10.00" waitingCount="1" stopTime="0.00" timeLoss="35.33" rerouteNo="0" devices="tripinfo_veh105" vType="passenger" speedFactor="1.00" vaporized=""/>
    <tripinfo id="veh131" depart="96.00" departLane="-43545645#0_1" departPos="16.78" departSpeed="0.00" departDelay="0.37" arrival="190.00" arrivalLane="143207979#8_1" arrivalPos="38.62" arrivalSpeed="13.21" duration="94.00" routeLength="1087.92" waitingTime="0.00" waitingCount="0" stopTime="0.00" timeLoss="13.80" rerouteNo="0" devices="tripinfo_veh131" vType="delivery" speedFactor="1.00" vaporized=""/>
    <tripinfo id="veh85" depart="63.00" departLane="48778441#2_1" departPos="2.90" departSpeed="0.00" departDelay="0.95" arrival="193.00" arrivalLane="1136283361_0" arrivalPos="47.88" arrivalSpeed="5.73" duration="130.00" routeLength="1222.11" waitingTime="28.00" waitingCount="1" stopTime="0.00" timeLoss="49.28" rerouteNo="0" devices="tripinfo_veh85" vType="passenger" speedFactor="1.25" vaporized=""/>
    <tripinfo id="veh53" depart="39.00" departLane="945793490#1_1" departPos="0.19" departSpeed="0.00" departDelay="0.31" arrival="200.00" arrivalLane="48778503#1_1" arrivalPos="56.23" arrivalSpeed="12.79" duration="161.00" routeLength="1284.69" waitingTime="13.00" waitingCount="1" stopTime="0.00" timeLoss="39.88" rerouteNo="0" devices="tripinfo_veh53" vType="passenger" speedFactor="0.95" vaporized=""/>
    <tripinfo id="veh52" depart="38.00" departLane="945794111_1" departPos="22.83" departSpeed="0.00" departDelay="0.04" arrival="201.00" arrivalLane="-1135856957_0" arrivalPos="27.07" arrivalSpeed="4.37" duration="163.00" routeLength="1547.04" waitingTime="0.00" waitingCount="0" stopTime="0.00" timeLoss="27.15" rerouteNo="0" devices="tripinfo_veh52" vType="passenger" speedFactor="0.91" vaporized=""/>
    <tripinfo id="veh40" depart="30.00" departLane="174818022#1_0" departPos="51.12" departSpeed="0.00" departDelay="0.80" arrival="203.00" arrivalLane="48778508#2_1" arrivalPos="0.60" arrivalSpeed="14.19" duration="173.00" routeLength="1696.94" waitingTime="0.00" waitingCount="0" stopTime="0.00" timeLoss="19.52" rerouteNo="0" devices="tripinfo_veh40" vType="passenger" speedFactor="1.05" vaporized=""/>
    <tripinfo id="veh43" depart="32.00" departLane="48778431#4_2" departPos="62.25" departSpeed="0.00" departDelay="0.61" arrival="203.00" arrivalLane="289113778#1_1" arrivalPos="394.53" arrivalSpeed="11.98" duration="171.00" routeLength="1667.25" waitingTime="7.00" waitingCount="2" stopTime="0.00" timeLoss="34.42" rerouteNo="0" devices="tripinfo_veh43" vType="motorcycle" speedFactor="0.90" vaporized=""/>
    <tripinfo id="veh60" depart="44.00" departLane="-48778500#0_1" departPos="0.87" departSpeed="0.00" departDelay="0.20" arrival="204.00" arrivalLane="48778443#1_1" arrivalPos="92.66" arrivalSpeed="11.57" duration="160.00" routeLength="1562.96" waitingTime="2.00" waitingCount="1" stopTime="0.00" timeLoss="30.89" rerouteNo="0" devices="tripinfo_veh60" vType="passenger" speedFactor="0.92" vaporized=""/>
    <tripinfo id="veh164" depart="120.00" departLane="-984508803_0" departPos="13.69" departSpeed="0.00" departDelay="0.28" arrival="205.00" arrivalLane="-1136284448_1" arrivalPos="34.50" arrivalSpeed="8.14" duration="85.00" routeLength="497.57" waitingTime="30.00" waitingCount="1" stopTime="0.00" timeLoss="45.42" rerouteNo="0" devices="tripinfo_veh164" vType="passenger" speedFactor="1.04" vaporized=""/>
    <tripinfo id="veh96" depart="71.00" departLane="48797767#0_1" departPos="16.81" departSpeed="0.00" departDelay="0.92" arrival="210.00" arrivalLane="48736612#6_1" arrivalPos="0.20" arrivalSpeed="12.92" duration="139.00" routeLength="1416.20" waitingTime="12.00" waitingCount="1" stopTime="0.00" timeLoss="31.50" rerouteNo="0" devices="tripinfo_veh96" vType="passenger" speedFactor="0.99" vaporized=""/>
    <tripinfo id="veh158" depart="116.00" departLane="-48778514#2_1" departPos="116.72" departSpeed="0.00" departDelay="0.66" arrival="211.00" arrivalLane="-48778498#1_1" arrivalPos="23.69" arrivalSpeed="10.78" duration="95.00" routeLength="1074.14" waitingTime="0.00" waitingCount="0" stopTime="0.00" timeLoss="19.52" rerouteNo="0" devices="tripinfo_veh158" vType="passenger" speedFactor="1.07" vaporized=""/>
    <tripinfo id="veh185" depart="136.00" departLane="-143207979#8_1" departPos="35.13" departSpeed="0.00" departDelay="0.95" arrival="211.00" arrivalLane="-48778516_1" arrivalPos="192.95" arrivalSpeed="11.72" duration="75.00" routeLength="764.53" waitingTime="0.00" waitingCount="0" stopTime="0.00" timeLoss="12.02" rerouteNo="0" devices="tripinfo_veh185" vType="passenger" speedFactor="0.92" vaporized=""/>
    <tripinfo id="veh12" depart="9.00" departLane="92198452#0_1" departPos="22.03" departSpeed="0.00" departDelay="0.24" arrival="219.00" arrivalLane="-48778473#0_1" arrivalPos="21.31" arrivalSpeed="13.07" duration="210.00" routeLength="1835.66" waitingTime="40.00" waitingCount="2" stopTime="0.00" timeLoss="76.45" rerouteNo="0" devices="tripinfo_veh12" vType="passenger" speedFactor="1.02" vaporized=""/>
    <tripinfo id="veh223" depart="163.00" departLane="-43544197#6_1" departPos="0.82" departSpeed="0.00" departDelay="0.21" arrival="220.00" arrivalLane="-43544001#3_1" arrivalPos="41.25" arrivalSpeed="12.63" duration="57.00" routeLength="613.60" waitingTime="0.00" waitingCount="0" stopTime="0.00" timeLoss="8.82" rerouteNo="0" devices="tripinfo_veh223" vType="passenger" speedFactor="0.94" vaporized=""/>
    <tripinfo id="veh247" depart="181.00" departLane="-48736647#1_1" departPos="61.99" departSpeed="0.00" departDelay="0.69" arrival="220.00" arrivalLane="-43573478_1" arrivalPos="180.41" arrivalSpeed="13.33" duration="39.00" routeLength="389.58" waitingTime="0.00" waitingCount="0" stopTime="0.00" timeLoss="9.20" rerouteNo="0" devices="tripinfo_veh247" vType="passenger" speedFactor="0.98" vaporized=""/>
    <tripinfo id="veh134" depart="98.00" departLane="258551281_1" departPos="60.83" departSpeed="0.00" departDelay="0.18" arrival="221.00" arrivalLane="258551317_1" arrivalPos="85.97" arrivalSpeed="11.13" duration="123.00" routeLength="1196.69" waitingTime="0.00" waitingCount="0" stopTime="0.00" timeLoss="13.27" rerouteNo="0" devices="tripinfo_veh134" vType="passenger" speedFactor="0.80" vaporized=""/>
    <tripinfo id="veh22" depart="17.00" departLane="383582498_0" departPos="30.56" departSpeed="0.00" departDelay="0.94" arrival="223.00" arrivalLane="43546039#1_1" arrivalPos="97.78" arrivalSpeed="15.39" duration="206.00" routeLength="1853.23" waitingTime="4.00" waitingCount="1" stopTime="0.00" timeLoss="45.11" rerouteNo="0" devices="tripinfo_veh22" vType="passenger" speedFactor="1.12" vaporized=""/>
    <tripinfo id="veh153" depart="112.00" departLane="-48778510#1_1" departPos="41.78" departSpeed="0.00" departDelay="0.31" arrival="224.00" arrivalLane="43544179#8_1" arrivalPos="43.05" arrivalSpeed="12.82" duration="112.00" routeLength="1221.21" waitingTime="0.00" waitingCount="0" stopTime="0.00" timeLoss="17.95" rerouteNo="0" devices="tripinfo_veh153" vType="delivery" speedFactor="0.97" vaporized=""/>
    <tripinfo id="veh123" depart="90.00" departLane="-48797769_1" departPos="7.29" departSpeed="0.00" departDelay="0.21" arrival="228.00" arrivalLane="-492965073#10_1" arrivalPos="59.87" arrivalSpeed="13.11" duration="138.00" routeLength="1077.33" waitingTime="18.00" waitingCount="1" stopTime="0.00" timeLoss="50.00" rerouteNo="0" devices="tripinfo_veh123" vType="passenger" speedFactor="0.97" vaporized=""/>
    <tripinfo id="veh46" depart="34.00" departLane="40236093_1" departPos="35.23" departSpeed="0.00" departDelay="0.42" arrival="229.00" arrivalLane="-1136279381_1" arrivalPos="79.74" arrivalSpeed="8.16" duration="195.00" routeLength="1407.60" waitingTime="50.00" waitingCount="4" stopTime="0.00" timeLoss="85.97" rerouteNo="0" devices="tripinfo_veh46" vType="passenger" speedFactor="1.00" vaporized=""/>
    <tripinfo id="veh132" depart="97.00" departLane="43547017#4_1" departPos="1.36" departSpeed="0.00" departDelay="0.64" arrival="230.00" arrivalLane="-289113778#0_1" arrivalPos="105.65" arrivalSpeed="11.19" duration="133.00" routeLength="1284.51" waitingTime="0.00" waitingCount="0" stopTime="0.00" timeLoss="23.71" rerouteNo="0" devices="tripinfo_veh132" vType="passenger" speedFactor="0.88" vaporized=""/>
    <tripinfo id="veh117" depart="86.00" departLane="-353939570#4_1" departPos="115.19" departSpeed="0.00" departDelay="0.59" arrival="232.00" arrivalLane="383582516_0" arrivalPos="280.65" arrivalSpeed="5.57" duration="146.00" routeLength="1392.93" waitingTime="0.00" waitingCount="0" stopTime="0.00" timeLoss="15.24" rerouteNo="0" devices="tripinfo_veh117" vType="delivery" speedFactor="1.01" vaporized=""/>
    <tripinfo id="veh49" depart="36.00" departLane="-43544197#8_1" departPos="25.19" departSpeed="0.00" departDelay="0.23" arrival="233.00" arrivalLane="-647998063#1_1" arrivalPos="65.11" arrivalSpeed="5.22" duration="197.00" routeLength="1015.98" waitingTime="0.00" waitingCount="0" stopTime="0.00" timeLoss="13.63" rerouteNo="0" devices="tripinfo_veh49" vType="bicycle" speedFactor="1.00" vaporized=""/>
    <tripinfo id="veh95" depart="70.00" departLane="43544138#8_1" departPos="4.72" departSpeed="0.00" departDelay="0.65" arrival="233.00" arrivalLane="-48778508#3_1" arrivalPos="2.39" arrivalSpeed="15.05" duration="163.00" routeLength="1471.74" waitingTime="50.00" waitingCount="1" stopTime="0.00" timeLoss="67.35" rerouteNo="0" devices="tripinfo_veh95" vType="passenger" speedFactor="1.13" vaporized=""/>
    <tripinfo id="veh211" depart="155.00" departLane="-48736650#2_1" departPos="4.28" departSpeed="0.00" departDelay="0.97" arrival="233.00" arrivalLane="-E34_1" arrivalPos="70.92" arrivalSpeed="12.89" duration="78.00" routeLength="573.58" waitingTime="11.00" waitingCount="1" stopTime="0.00" timeLoss="31.77" rerouteNo="0" devices="tripinfo_veh211" vType="passenger" speedFactor="0.96" vaporized=""/>
    <tripinfo id="veh191" depart="140.00" departLane="48778520_1" departPos="58.65" departSpeed="0.00" departDelay="0.57" arrival="236.00" arrivalLane="-647998062_1" arrivalPos="87.04" arrivalSpeed="12.42" duration="96.00" routeLength="926.64" waitingTime="3.00" waitingCount="1" stopTime="0.00" timeLoss="23.64" rerouteNo="0" devices="tripinfo_veh191" vType="delivery" speedFactor="0.99" vaporized=""/>
    <tripinfo id="veh1" depart="1.00" departLane="43546519#0_1" departPos="303.82" departSpeed="0.00" departDelay="0.27" arrival="238.00" arrivalLane="-383582501_0" arrivalPos="63.46" arrivalSpeed="5.26" duration="237.00" routeLength="2575.99" waitingTime="2.00" waitingCount="1" stopTime="0.00" timeLoss="36.20" rerouteNo="0" devices="tripinfo_veh1" vType="motorcycle" speedFactor="0.98" vaporized=""/>
    <tripinfo id="veh76" depart="56.00" departLane="223883703_0" departPos="78.33" departSpeed="0.00" departDelay="0.52" arrival="239.00" arrivalLane="48778476_1" arrivalPos="90.71" arrivalSpeed="15.18" duration="183.00" routeLength="1756.90" waitingTime="29.00" waitingCount="3" stopTime="0.00" timeLoss="62.71" rerouteNo="0" devices="tripinfo_veh76" vType="passenger" speedFactor="1.10" vaporized=""/>
    <personinfo id="ped37" depart="185.00" type="DEFAULT_PEDTYPE" speedFactor="0.95" duration="57.00" waitingTime="0.00" timeLoss="10.63" traveltime="57.00">
        <walk depart="185.00" departPos="0.00" arrival="242.00" arrivalPos="12.69" duration="57.00" routeLength="61.40" timeLoss="10.63" maxSpeed="1.32"/>
    </personinfo>
    <tripinfo id="veh2" depart="2.00" departLane="-1250915721#0_1" departPos="7.34" departSpeed="0.00" departDelay="0.54" arrival="246.00" arrivalLane="143207979#2_1" arrivalPos="38.81" arrivalSpeed="7.56" duration="244.00" routeLength="2293.62" waitingTime="0.00" waitingCount="0" stopTime="0.00" timeLoss="36.51" rerouteNo="0" devices="tripinfo_veh2" vType="passenger" speedFactor="0.89" vaporized=""/>
    <tripinfo id="veh63" depart="46.00" departLane="-1136289992_1" departPos="5.33" departSpeed="0.00" departDelay="0.01" arrival="246.00" arrivalLane="1250915724#0_1" arrivalPos="12.38" arrivalSpeed="4.78" duration="200.00" routeLength="1714.55" waitingTime="31.00" waitingCount="2" stopTime="0.00" timeLoss="57.53" rerouteNo="0" devices="tripinfo_veh63" vType="passenger" speedFactor="1.02" vaporized=""/>
    <tripinfo id="veh112" depart="82.00" departLane="-48778486_1" departPos="6.45" departSpeed="0.00" departDelay="0.24" arrival="247.00" arrivalLane="-258551281_1" arrivalPos="67.94" arrivalSpeed="13.44" duration="165.00" routeLength="1951.81" waitingTime="0.00" waitingCount="0" stopTime="0.00" timeLoss="21.87" rerouteNo="0" devices="tripinfo_veh112" vType="passenger" speedFactor="1.01" vaporized=""/>
    <tripinfo id="veh41" depart="30.00" departLane="647226814#1_1" departPos="0.56" departSpeed="0.00" departDelay="0.07" arrival="248.00" arrivalLane="-40329447_1" arrivalPos="12.91" arrivalSpeed="12.41" duration="218.00" routeLength="1821.55" waitingTime="59.00" waitingCount="1" stopTime="0.00" timeLoss="84.61" rerouteNo="0" devices="tripinfo_veh41" vType="motorcycle" speedFactor="1.00" vaporized=""/>
    <tripinfo id="veh129" depart="95.00" departLane="43544138#2_1" departPos="0.02" departSpeed="0.00" departDelay="0.83" arrival="249.00" arrivalLane="-945794110_1" arrivalPos="52.39" arrivalSpeed="6.48" duration="154.00" routeLength="1468.16" waitingTime="15.00" waitingCount="2" stopTime="0.00" timeLoss="41.95" rerouteNo="0" devices="tripinfo_veh129" vType="motorcycle" speedFactor="1.01" vaporized=""/>
    <tripinfo id="veh213" depart="156.00" departLane="43544197#6_1" departPos="36.33" departSpeed="0.00" departDelay="0.51" arrival="250.00" arrivalLane="40304754#0_1" arrivalPos="327.38" arrivalSpeed="12.79" duration="94.00" routeLength="1111.29" waitingTime="0.00" waitingCount="0" stopTime="0.00" timeLoss="13.72" rerouteNo="0" devices="tripinfo_veh213" vType="passenger" speedFactor="1.01" vaporized=""/>
    <tripinfo id="veh228" depart="167.00" departLane="48736620#3_2" departPos="13.34" departSpeed="0.00" departDelay="0.56" arrival="252.00" arrivalLane="492965073#6_2" arrivalPos="1.90" arrivalSpeed="7.96" duration="85.00" routeLength="900.32" waitingTime="0.00" waitingCount="0" stopTime="0.00" timeLoss="14.93" rerouteNo="0" devices="tripinfo_veh228" vType="delivery" speedFactor="0.93" vaporized=""/>
    <tripinfo id="veh255" depart="187.00" departLane="-1364605473_0" departPos="24.66" departSpeed="0.00" departDelay="0.85" arrival="252.00" arrivalLane="-33913538#7_1" arrivalPos="140.90" arrivalSpeed="13.33" duration="65.00" routeLength="464.18" waitingTime="18.00" waitingCount="1" stopTime="0.00" timeLoss="27.01" rerouteNo="0" devices="tripinfo_veh255" vType="emergency" speedFactor="1.00" vaporized=""/>
    <tripinfo id="veh4" depart="3.00" departLane="-40330557#3_1" departPos="23.38" departSpeed="0.00" departDelay="0.08" arrival="254.00" arrivalLane="1135856746#1_1" arrivalPos="138.07" arrivalSpeed="14.20" duration="251.00" routeLength="2623.59" waitingTime="22.00" waitingCount="2" stopTime="0.00" timeLoss="73.77" rerouteNo="0" devices="tripinfo_veh4" vType="passenger" speedFactor="1.09" vaporized=""/>
    <tripinfo id="veh17" depart="13.00" departLane="43548506_1" departPos="45.04" departSpeed="0.00" departDelay="0.59" arrival="254.00" arrivalLane="-1136119743#0_1" arrivalPos="24.46" arrivalSpeed="7.98" duration="241.00" routeLength="2132.87" waitingTime="40.00" waitingCount="3" stopTime="0.00" timeLoss="79.39" rerouteNo="0" devices="tripinfo_veh17" vType="passenger" speedFactor="1.03" vaporized=""/>
    <tripinfo id="veh240" depart="176.00" departLane="383582518#0_0" departPos="40.91" departSpeed="0.00" departDelay="0.80" arrival="254.00" arrivalLane="48778510#0_1" arrivalPos="7.19" arrivalSpeed="8.89" duration="78.00" routeLength="811.83" waitingTime="0.00" waitingCount="0" stopTime="0.00" timeLoss="17.69" rerouteNo="0" devices="tripinfo_veh240" vType="passenger" speedFactor="1.10" vaporized=""/>
    <tripinfo id="veh128" depart="94.00" departLane="-48778472_1" departPos="25.76" departSpeed="0.00" departDelay="0.56" arrival="255.00" arrivalLane="40299739#0_1" arrivalPos="94.72" arrivalSpeed="15.79" duration="161.00" routeLength="1990.17" waitingTime="3.00" waitingCount="1" stopTime="0.00" timeLoss="37.19" rerouteNo="0" devices="tripinfo_veh128" vType="passenger" speedFactor="1.18" vaporized=""/>