<?xml version="1.0" encoding="UTF-8"?>

<!-- generated on 2025-06-12 12:30:02 by Eclipse SUMO sumo Version 1.22.0
<sumoConfiguration xmlns:xsi="http://www.w3.org/2001/XMLSchema-instance" xsi:noNamespaceSchemaLocation="http://sumo.dlr.de/xsd/sumoConfiguration.xsd">

    <input>
        <net-file value="osm.net.xml"/>
        <route-files value="full.rou.xml, ped.rou.xml, truck.rou.xml"/>
        <additional-files value="osm.poly.xml, vtypes.xml"/>
    </input>

    <output>
        <summary-output value="summary.xml"/>
        <tripinfo-output value="E:\licenta\oras-mediu\2025-06-05-11-45-23\baseline_outputs\tripinfo_baseline_ep0.xml"/>
    </output>

    <processing>
        <ignore-route-errors value="true"/>
        <tls.actuated.jam-threshold value="30"/>
    </processing>

    <routing>
        <device.rerouting.adaptation-steps value="18"/>
        <device.rerouting.adaptation-interval value="10"/>
    </routing>

    <report>
        <verbose value="true"/>
        <duration-log.statistics value="true"/>
        <no-step-log value="true"/>
    </report>

    <traci_server>
        <remote-port value="64436"/>
    </traci_server>

    <gui_only>
        <gui-settings-file value="osm.view.xml"/>
    </gui_only>

</sumoConfiguration>
-->

<tripinfos xmlns:xsi="http://www.w3.org/2001/XMLSchema-instance" xsi:noNamespaceSchemaLocation="http://sumo.dlr.de/xsd/tripinfo_file.xsd">
    <tripinfo id="veh20" depart="11.00" departLane="33913538#3_1" departPos="0.70" departSpeed="0.00" departDelay="0.60" arrival="19.00" arrivalLane="33913538#5_1" arrivalPos="6.18" arrivalSpeed="11.97" duration="8.00" routeLength="60.61" waitingTime="0.00" waitingCount="0" stopTime="0.00" timeLoss="2.90" rerouteNo="0" devices="tripinfo_veh20" vType="passenger" speedFactor="0.89" vaporized=""/>
    <personinfo id="ped5" depart="25.00" type="DEFAULT_PEDTYPE" speedFactor="1.15" duration="20.00" waitingTime="0.00" timeLoss="2.29" traveltime="20.00">
        <walk depart="25.00" departPos="0.00" arrival="45.00" arrivalPos="0.10" duration="20.00" routeLength="28.21" timeLoss="2.29" maxSpeed="1.59"/>
    </personinfo>
    <tripinfo id="veh79" depart="42.00" departLane="-33909936#2_1" departPos="54.48" departSpeed="0.00" departDelay="0.92" arrival="45.00" arrivalLane="-33909936#2_1" arrivalPos="60.97" arrivalSpeed="5.48" duration="3.00" routeLength="6.49" waitingTime="0.00" waitingCount="0" stopTime="0.00" timeLoss="2.33" rerouteNo="0" devices="tripinfo_veh79" vType="passenger" speedFactor="1.10" vaporized=""/>
    <tripinfo id="veh23" depart="12.00" departLane="48778446#2_1" departPos="1.40" departSpeed="0.00" departDelay="0.04" arrival="89.00" arrivalLane="256555440#0_1" arrivalPos="59.99" arrivalSpeed="13.71" duration="77.00" routeLength="754.76" waitingTime="0.00" waitingCount="0" stopTime="0.00" timeLoss="21.06" rerouteNo="0" devices="tripinfo_veh23" vType="passenger" speedFactor="1.03" vaporized=""/>
    <tripinfo id="veh77" depart="41.00" departLane="E12_1" departPos="88.19" departSpeed="0.00" departDelay="0.96" arrival="90.00" arrivalLane="48778474#1_1" arrivalPos="171.29" arrivalSpeed="11.64" duration="49.00" routeLength="460.16" waitingTime="0.00" waitingCount="0" stopTime="0.00" timeLoss="9.59" rerouteNo="0" devices="tripinfo_veh77" vType="passenger" speedFactor="0.91" vaporized=""/>
    <tripinfo id="veh31" depart="17.00" departLane="92198453#5_1" departPos="20.51" departSpeed="0.00" departDelay="0.88" arrival="110.00" arrivalLane="48778456#0_1" arrivalPos="27.19" arrivalSpeed="11.35" duration="93.00" routeLength="954.98" waitingTime="1.00" waitingCount="1" stopTime="0.00" timeLoss="16.86" rerouteNo="0" devices="tripinfo_veh31" vType="passenger" speedFactor="0.94" vaporized=""/>
    <tripinfo id="veh9" depart="5.00" departLane="-984508802_0" departPos="42.01" departSpeed="0.00" departDelay="0.32" arrival="113.00" arrivalLane="1378376381_2" arrivalPos="160.13" arrivalSpeed="12.27" duration="108.00" routeLength="1093.81" waitingTime="0.00" waitingCount="0" stopTime="0.00" timeLoss="13.74" rerouteNo="0" devices="tripinfo_veh9" vType="passenger" speedFactor="0.92" vaporized=""/>
    <tripinfo id="veh5" depart="3.00" departLane="-40299264#1_1" departPos="117.87" departSpeed="0.00" departDelay="0.40" arrival="114.00" arrivalLane="647689085_1" arrivalPos="124.55" arrivalSpeed="11.95" duration="111.00" routeLength="1155.23" waitingTime="0.00" waitingCount="0" stopTime="0.00" timeLoss="18.28" rerouteNo="0" devices="tripinfo_veh5" vType="passenger" speedFactor="0.94" vaporized=""/>
    <tripinfo id="veh41" depart="22.00" departLane="-1136301818_1" departPos="21.54" departSpeed="0.00" departDelay="0.68" arrival="116.00" arrivalLane="-43546449#0_1" arrivalPos="86.77" arrivalSpeed="14.52" duration="94.00" routeLength="900.35" waitingTime="5.00" waitingCount="1" stopTime="0.00" timeLoss="28.51" rerouteNo="0" devices="tripinfo_veh41" vType="passenger" speedFactor="1.06" vaporized=""/>
    <tripinfo id="veh43" depart="23.00" departLane="143207979#3_1" departPos="22.18" departSpeed="0.00" departDelay="0.64" arrival="126.00" arrivalLane="-48778525#0_1" arrivalPos="49.94" arrivalSpeed="14.50" duration="103.00" routeLength="1082.77" waitingTime="0.00" waitingCount="0" stopTime="0.00" timeLoss="22.06" rerouteNo="0" devices="tripinfo_veh43" vType="passenger" speedFactor="1.05" vaporized=""/>
    <tripinfo id="veh56" depart="30.00" departLane="492965073#8_2" departPos="60.13" departSpeed="0.00" departDelay="0.88" arrival="127.00" arrivalLane="48797771#0_1" arrivalPos="26.57" arrivalSpeed="11.89" duration="97.00" routeLength="671.80" waitingTime="14.00" waitingCount="1" stopTime="0.00" timeLoss="37.27" rerouteNo="0" devices="tripinfo_veh56" vType="passenger" speedFactor="0.91" vaporized=""/>
    <tripinfo id="veh32" depart="17.00" departLane="-43544202#0_1" departPos="149.66" departSpeed="0.00" departDelay="0.36" arrival="133.00" arrivalLane="48778431#10_1" arrivalPos="349.08" arrivalSpeed="14.43" duration="116.00" routeLength="1521.71" waitingTime="0.00" waitingCount="0" stopTime="0.00" timeLoss="14.42" rerouteNo="0" devices="tripinfo_veh32" vType="passenger" speedFactor="1.10" vaporized=""/>
    <tripinfo id="veh36" depart="19.00" departLane="-48778485#1_1" departPos="1.74" departSpeed="0.00" departDelay="0.28" arrival="133.00" arrivalLane="-222605084#9_1" arrivalPos="2.21" arrivalSpeed="4.56" duration="114.00" routeLength="1052.27" waitingTime="0.00" waitingCount="0" stopTime="0.00" timeLoss="19.81" rerouteNo="0" devices="tripinfo_veh36" vType="passenger" speedFactor="1.04" vaporized=""/>
    <tripinfo id="veh190" depart="99.00" departLane="1137794254_1" departPos="16.77" departSpeed="0.00" departDelay="0.20" arrival="133.00" arrivalLane="-48778508#1_1" arrivalPos="98.43" arrivalSpeed="14.31" duration="34.00" routeLength="382.55" waitingTime="0.00" waitingCount="0" stopTime="0.00" timeLoss="6.90" rerouteNo="0" devices="tripinfo_veh190" vType="passenger" speedFactor="1.09" vaporized=""/>
    <tripinfo id="veh8" depart="5.00" departLane="48778502#1_1" departPos="1.17" departSpeed="0.00" departDelay="0.84" arrival="134.00" arrivalLane="48736648#0_0" arrivalPos="0.20" arrivalSpeed="5.05" duration="129.00" routeLength="1619.30" waitingTime="0.00" waitingCount="0" stopTime="0.00" timeLoss="13.60" rerouteNo="0" devices="tripinfo_veh8" vType="delivery" speedFactor="1.05" vaporized=""/>
    <tripinfo id="veh12" depart="7.00" departLane="-143207979#8_1" departPos="12.43" departSpeed="0.00" departDelay="0.76" arrival="134.00" arrivalLane="43547017#5_1" arrivalPos="24.31" arrivalSpeed="4.91" duration="127.00" routeLength="601.48" waitingTime="0.00" waitingCount="0" stopTime="0.00" timeLoss="9.83" rerouteNo="0" devices="tripinfo_veh12" vType="bicycle" speedFactor="0.93" vaporized=""/>
    <tripinfo id="veh44" depart="23.00" departLane="40236203#3_1" departPos="76.57" departSpeed="0.00" departDelay="0.12" arrival="136.00" arrivalLane="-222609002#3_1" arrivalPos="89.31" arrivalSpeed="11.28" duration="113.00" routeLength="1244.50" waitingTime="0.00" waitingCount="0" stopTime="0.00" timeLoss="19.62" rerouteNo="0" devices="tripinfo_veh44" vType="motorcycle" speedFactor="1.00" vaporized=""/>
    <tripinfo id="veh91" depart="48.00" departLane="383582513_0" departPos="4.86" departSpeed="0.00" departDelay="0.68" arrival="137.00" arrivalLane="1136289992_1" arrivalPos="17.60" arrivalSpeed="8.06" duration="89.00" routeLength="975.66" waitingTime="0.00" waitingCount="0" stopTime="0.00" timeLoss="14.40" rerouteNo="0" devices="tripinfo_veh91" vType="passenger" speedFactor="1.10" vaporized=""/>
    <tripinfo id="veh85" depart="45.00" departLane="-671606411_1" departPos="110.95" departSpeed="0.00" departDelay="0.80" arrival="138.00" arrivalLane="-859738688_0" arrivalPos="223.29" arrivalSpeed="4.81" duration="93.00" routeLength="803.43" waitingTime="0.00" waitingCount="0" stopTime="0.00" timeLoss="12.43" rerouteNo="0" devices="tripinfo_veh85" vType="passenger" speedFactor="1.03" vaporized=""/>
    <tripinfo id="veh92" depart="48.00" departLane="48736640#0_1" departPos="4.59" departSpeed="0.00" departDelay="0.16" arrival="139.00" arrivalLane="530103972_1" arrivalPos="49.14" arrivalSpeed="2.48" duration="91.00" routeLength="692.81" waitingTime="0.00" waitingCount="0" stopTime="0.00" timeLoss="21.19" rerouteNo="0" devices="tripinfo_veh92" vType="passenger" speedFactor="0.97" vaporized=""/>
    <tripinfo id="veh97" depart="51.00" departLane="-222605087#1_1" departPos="0.34" departSpeed="0.00" departDelay="0.56" arrival="139.00" arrivalLane="-383582508#1_0" arrivalPos="33.34" arrivalSpeed="4.82" duration="88.00" routeLength="740.46" waitingTime="0.00" waitingCount="0" stopTime="0.00" timeLoss="18.19" rerouteNo="0" devices="tripinfo_veh97" vType="motorcycle" speedFactor="0.94" vaporized=""/>
    <tripinfo id="veh63" depart="33.00" departLane="40306162#1_1" departPos="5.02" departSpeed="0.00" departDelay="0.24" arrival="140.00" arrivalLane="-383582497_0" arrivalPos="31.03" arrivalSpeed="2.13" duration="107.00" routeLength="835.95" waitingTime="0.00" waitingCount="0" stopTime="0.00" timeLoss="27.86" rerouteNo="0" devices="tripinfo_veh63" vType="passenger" speedFactor="1.03" vaporized=""/>
    <tripinfo id="veh30" depart="16.00" departLane="-48797767#2_1" departPos="14.68" departSpeed="0.00" departDelay="0.40" arrival="143.00" arrivalLane="40299241#0_1" arrivalPos="57.32" arrivalSpeed="11.85" duration="127.00" routeLength="895.30" waitingTime="34.00" waitingCount="1" stopTime="0.00" timeLoss="58.89" rerouteNo="0" devices="tripinfo_veh30" vType="motorcycle" speedFactor="1.02" vaporized=""/>
    <tripinfo id="veh121" depart="63.00" departLane="492965073#8_2" departPos="66.97" departSpeed="0.00" departDelay="0.08" arrival="144.00" arrivalLane="48736639#0_1" arrivalPos="106.22" arrivalSpeed="8.28" duration="81.00" routeLength="656.89" waitingTime="0.00" waitingCount="0" stopTime="0.00" timeLoss="23.38" rerouteNo="0" devices="tripinfo_veh121" vType="passenger" speedFactor="0.89" vaporized=""/>
    <tripinfo id="veh1" depart="1.00" departLane="-48778508#3_1" departPos="0.11" departSpeed="0.00" departDelay="0.48" arrival="145.00" arrivalLane="984508802_0" arrivalPos="57.38" arrivalSpeed="4.95" duration="144.00" routeLength="1227.55" waitingTime="24.00" waitingCount="1" stopTime="0.00" timeLoss="48.40" rerouteNo="0" devices="tripinfo_veh1" vType="passenger" speedFactor="1.08" vaporized=""/>
    <tripinfo id="veh72" depart="38.00" departLane="-48778496_1" departPos="66.44" departSpeed="0.00" departDelay="0.56" arrival="148.00" arrivalLane="40334244#3_1" arrivalPos="176.79" arrivalSpeed="12.65" duration="110.00" routeLength="1116.29" waitingTime="0.00" waitingCount="0" stopTime="0.00" timeLoss="18.63" rerouteNo="0" devices="tripinfo_veh72" vType="motorcycle" speedFactor="0.94" vaporized=""/>
    <personinfo id="ped29" depart="145.00" type="DEFAULT_PEDTYPE" speedFactor="1.03" duration="9.00" waitingTime="0.00" timeLoss="1.91" traveltime="9.00">
        <walk depart="145.00" departPos="0.00" arrival="154.00" arrivalPos="10.13" duration="9.00" routeLength="10.13" timeLoss="1.91" maxSpeed="1.43"/>
    </personinfo>
    <tripinfo id="veh22" depart="12.00" departLane="-273835688_1" departPos="22.96" departSpeed="0.00" departDelay="0.56" arrival="158.00" arrivalLane="-174818022#2_0" arrivalPos="100.40" arrivalSpeed="4.35" duration="146.00" routeLength="1167.98" waitingTime="3.00" waitingCount="1" stopTime="0.00" timeLoss="30.18" rerouteNo="0" devices="tripinfo_veh22" vType="passenger" speedFactor="0.87" vaporized=""/>
    <tripinfo id="veh283" depart="148.00" departLane="43573573#2_1" departPos="201.74" departSpeed="0.00" departDelay="0.84" arrival="158.00" arrivalLane="43573573#3_1" arrivalPos="71.51" arrivalSpeed="15.41" duration="10.00" routeLength="87.04" waitingTime="0.00" waitingCount="0" stopTime="0.00" timeLoss="4.23" rerouteNo="0" devices="tripinfo_veh283" vType="passenger" speedFactor="1.16" vaporized=""/>
    <tripinfo id="veh133" depart="70.00" departLane="-43547579#4_1" departPos="208.14" departSpeed="0.00" departDelay="0.84" arrival="160.00" arrivalLane="-492965073#2_1" arrivalPos="175.38" arrivalSpeed="10.68" duration="90.00" routeLength="878.79" waitingTime="0.00" waitingCount="0" stopTime="0.00" timeLoss="9.97" rerouteNo="0" devices="tripinfo_veh133" vType="passenger" speedFactor="0.80" vaporized=""/>
    <tripinfo id="veh45" depart="24.00" departLane="48736637_1" departPos="7.96" departSpeed="0.00" departDelay="0.60" arrival="162.00" arrivalLane="-40299241#1_1" arrivalPos="23.44" arrivalSpeed="5.58" duration="138.00" routeLength="781.54" waitingTime="0.00" waitingCount="0" stopTime="0.00" timeLoss="9.97" rerouteNo="0" devices="tripinfo_veh45" vType="bicycle" speedFactor="1.10" vaporized=""/>
    <tripinfo id="veh216" depart="113.00" departLane="43546449#0_1" departPos="55.81" departSpeed="0.00" departDelay="0.68" arrival="162.00" arrivalLane="-48736640#0_1" arrivalPos="56.32" arrivalSpeed="5.50" duration="49.00" routeLength="250.90" waitingTime="0.00" waitingCount="0" stopTime="0.00" timeLoss="5.88" rerouteNo="0" devices="tripinfo_veh216" vType="bicycle" speedFactor="1.06" vaporized=""/>
    <tripinfo id="veh200" depart="104.00" departLane="1250915722#2_1" departPos="3.35" departSpeed="0.00" departDelay="0.00" arrival="164.00" arrivalLane="-222605084#7_1" arrivalPos="34.66" arrivalSpeed="4.37" duration="60.00" routeLength="256.55" waitingTime="0.00" waitingCount="0" stopTime="0.00" timeLoss="7.92" rerouteNo="0" devices="tripinfo_veh200" vType="passenger" speedFactor="0.89" vaporized=""/>
    <tripinfo id="veh26" depart="14.00" departLane="1232511776#0_1" departPos="8.03" departSpeed="0.00" departDelay="0.48" arrival="166.00" arrivalLane="859732803#0_0" arrivalPos="20.07" arrivalSpeed="5.90" duration="152.00" routeLength="1448.88" waitingTime="5.00" waitingCount="2" stopTime="0.00" timeLoss="56.25" rerouteNo="0" devices="tripinfo_veh26" vType="passenger" speedFactor="1.15" vaporized=""/>
    <tripinfo id="veh67" depart="35.00" departLane="-143207982#5_1" departPos="29.75" departSpeed="0.00" departDelay="0.16" arrival="166.00" arrivalLane="578560104#2_1" arrivalPos="122.59" arrivalSpeed="13.83" duration="131.00" routeLength="1637.42" waitingTime="0.00" waitingCount="0" stopTime="0.00" timeLoss="12.84" rerouteNo="0" devices="tripinfo_veh67" vType="passenger" speedFactor="1.02" vaporized=""/>
    <personinfo id="ped20" depart="100.00" type="DEFAULT_PEDTYPE" speedFactor="0.83" duration="68.00" waitingTime="0.00" timeLoss="5.68" traveltime="68.00">
        <walk depart="100.00" departPos="0.00" arrival="168.00" arrivalPos="32.48" duration="68.00" routeLength="71.47" timeLoss="5.68" maxSpeed="1.15"/>
    </personinfo>
    <tripinfo id="veh100" depart="52.00" departLane="48778503#0_1" departPos="22.47" departSpeed="0.00" departDelay="0.00" arrival="170.00" arrivalLane="-43544138#2_1" arrivalPos="0.25" arrivalSpeed="14.20" duration="118.00" routeLength="1253.91" waitingTime="0.00" waitingCount="0" stopTime="0.00" timeLoss="24.79" rerouteNo="0" devices="tripinfo_veh100" vType="passenger" speedFactor="1.02" vaporized=""/>
    <personinfo id="ped0" depart="0.00" type="DEFAULT_PEDTYPE" speedFactor="1.03" duration="173.00" waitingTime="0.00" timeLoss="18.87" traveltime="173.00">
        <walk depart="0.00" departPos="0.00" arrival="173.00" arrivalPos="22.00" duration="173.00" routeLength="220.56" timeLoss="18.87" maxSpeed="1.43"/>
    </personinfo>
    <tripinfo id="veh202" depart="106.00" departLane="-43546053#2_1" departPos="165.21" departSpeed="0.00" departDelay="0.96" arrival="173.00" arrivalLane="-222608881#0_1" arrivalPos="169.24" arrivalSpeed="14.62" duration="67.00" routeLength="723.18" waitingTime="0.00" waitingCount="0" stopTime="0.00" timeLoss="17.00" rerouteNo="0" devices="tripinfo_veh202" vType="passenger" speedFactor="1.10" vaporized=""/>
    <tripinfo id="veh286" depart="149.00" departLane="-48797774_1" departPos="98.38" departSpeed="0.00" departDelay="0.28" arrival="176.00" arrivalLane="945794109_1" arrivalPos="21.82" arrivalSpeed="6.90" duration="27.00" routeLength="229.89" waitingTime="0.00" waitingCount="0" stopTime="0.00" timeLoss="6.12" rerouteNo="0" devices="tripinfo_veh286" vType="motorcycle" speedFactor="0.91" vaporized=""/>
    <tripinfo id="veh80" depart="42.00" departLane="-43573573#3_1" departPos="46.87" departSpeed="0.00" departDelay="0.40" arrival="179.00" arrivalLane="996489799#1_0" arrivalPos="59.51" arrivalSpeed="4.46" duration="137.00" routeLength="1388.97" waitingTime="0.00" waitingCount="0" stopTime="0.00" timeLoss="25.78" rerouteNo="0" devices="tripinfo_veh80" vType="emergency" speedFactor="1.00" vaporized=""/>
    <tripinfo id="veh178" depart="93.00" departLane="492965073#9_2" departPos="18.83" departSpeed="0.00" departDelay="0.44" arrival="180.00" arrivalLane="48778464#3_1" arrivalPos="0.20" arrivalSpeed="8.73" duration="87.00" routeLength="906.81" waitingTime="0.00" waitingCount="0" stopTime="0.00" timeLoss="20.43" rerouteNo="0" devices="tripinfo_veh178" vType="passenger" speedFactor="1.04" vaporized=""/>
    <tripinfo id="veh128" depart="67.00" departLane="-304695350#0_1" departPos="0.06" departSpeed="0.00" departDelay="0.44" arrival="181.00" arrivalLane="-43546648#2_1" arrivalPos="81.52" arrivalSpeed="13.71" duration="114.00" routeLength="741.81" waitingTime="36.00" waitingCount="1" stopTime="0.00" timeLoss="56.47" rerouteNo="0" devices="tripinfo_veh128" vType="motorcycle" speedFactor="1.01" vaporized=""/>
    <tripinfo id="veh35" depart="19.00" departLane="-43546648#5_1" departPos="0.87" departSpeed="0.00" departDelay="0.80" arrival="182.00" arrivalLane="40330575#4_1" arrivalPos="66.37" arrivalSpeed="13.62" duration="163.00" routeLength="1719.03" waitingTime="12.00" waitingCount="1" stopTime="0.00" timeLoss="42.84" rerouteNo="0" devices="tripinfo_veh35" vType="passenger" speedFactor="1.07" vaporized=""/>
    <tripinfo id="veh143" depart="75.00" departLane="-43546064#1_1" departPos="96.91" departSpeed="0.00" departDelay="0.64" arrival="182.00" arrivalLane="-43573547#5_1" arrivalPos="56.54" arrivalSpeed="12.72" duration="107.00" routeLength="1160.98" waitingTime="0.00" waitingCount="0" stopTime="0.00" timeLoss="15.88" rerouteNo="0" devices="tripinfo_veh143" vType="passenger" speedFactor="0.96" vaporized=""/>
    <tripinfo id="veh11" depart="6.00" departLane="-578560104#3_1" departPos="32.44" departSpeed="0.00" departDelay="0.28" arrival="183.00" arrivalLane="1250915720#6_1" arrivalPos="63.45" arrivalSpeed="4.33" duration="177.00" routeLength="1054.76" waitingTime="29.00" waitingCount="1" stopTime="0.00" timeLoss="54.60" rerouteNo="0" devices="tripinfo_veh11" vType="passenger" speedFactor="0.90" vaporized=""/>
    <tripinfo id="veh42" depart="22.00" departLane="-289113877#0_1" departPos="296.45" departSpeed="0.00" departDelay="0.16" arrival="183.00" arrivalLane="-43573547#0_1" arrivalPos="148.63" arrivalSpeed="16.02" duration="161.00" routeLength="1968.95" waitingTime="0.00" waitingCount="0" stopTime="0.00" timeLoss="36.45" rerouteNo="0" devices="tripinfo_veh42" vType="passenger" speedFactor="1.17" vaporized=""/>
    <tripinfo id="veh173" depart="90.00" departLane="48778461#1_1" departPos="2.92" departSpeed="0.00" departDelay="0.04" arrival="184.00" arrivalLane="647770574_1" arrivalPos="111.18" arrivalSpeed="11.20" duration="94.00" routeLength="971.85" waitingTime="0.00" waitingCount="0" stopTime="0.00" timeLoss="19.24" rerouteNo="0" devices="tripinfo_veh173" vType="motorcycle" speedFactor="1.00" vaporized=""/>
    <tripinfo id="veh214" depart="112.00" departLane="43546935#0_1" departPos="46.45" departSpeed="0.00" departDelay="0.72" arrival="184.00" arrivalLane="671642291_1" arrivalPos="61.56" arrivalSpeed="11.04" duration="72.00" routeLength="623.97" waitingTime="0.00" waitingCount="0" stopTime="0.00" timeLoss="11.79" rerouteNo="0" devices="tripinfo_veh214" vType="passenger" speedFactor="0.80" vaporized=""/>
    <tripinfo id="veh292" depart="152.00" departLane="222605084#8_1" departPos="1.31" departSpeed="0.00" departDelay="0.16" arrival="184.00" arrivalLane="-1251292610_1" arrivalPos="10.57" arrivalSpeed="3.86" duration="32.00" routeLength="137.45" waitingTime="0.00" waitingCount="0" stopTime="0.00" timeLoss="7.73" rerouteNo="0" devices="tripinfo_veh292" vType="motorcycle" speedFactor="1.02" vaporized=""/>
    <tripinfo id="veh303" depart="158.00" departLane="-1136289989_1" departPos="15.90" departSpeed="0.00" departDelay="0.44" arrival="188.00" arrivalLane="1136289991_1" arrivalPos="31.14" arrivalSpeed="7.52" duration="30.00" routeLength="184.25" waitingTime="0.00" waitingCount="0" stopTime="0.00" timeLoss="7.18" rerouteNo="0" devices="tripinfo_veh303" vType="passenger" speedFactor="0.90" vaporized=""/>
    <tripinfo id="veh113" depart="59.00" departLane="-143207982#1_1" departPos="5.18" departSpeed="0.00" departDelay="0.24" arrival="190.00" arrivalLane="E35_1" arrivalPos="178.51" arrivalSpeed="6.92" duration="131.00" routeLength="955.62" waitingTime="42.00" waitingCount="1" stopTime="0.00" timeLoss="60.98" rerouteNo="0" devices="tripinfo_veh113" vType="emergency" speedFactor="1.00" vaporized=""/>
    <personinfo id="ped28" depart="140.00" type="DEFAULT_PEDTYPE" speedFactor="1.00" duration="55.00" waitingTime="0.00" timeLoss="6.32" traveltime="55.00">
        <walk depart="140.00" departPos="0.00" arrival="195.00" arrivalPos="20.91" duration="55.00" routeLength="67.57" timeLoss="6.32" maxSpeed="1.39"/>
    </personinfo>
    <tripinfo id="veh27" depart="15.00" departLane="-43546460#3_1" departPos="37.37" departSpeed="0.00" departDelay="0.96" arrival="195.00" arrivalLane="43544197#8_1" arrivalPos="132.38" arrivalSpeed="14.31" duration="180.00" routeLength="2307.72" waitingTime="0.00" waitingCount="0" stopTime="0.00" timeLoss="26.50" rerouteNo="0" devices="tripinfo_veh27" vType="passenger" speedFactor="1.12" vaporized=""/>
    <tripinfo id="veh127" depart="67.00" departLane="-40334245#2_1" departPos="2.90" departSpeed="0.00" departDelay="0.96" arrival="195.00" arrivalLane="-353939570#9_1" arrivalPos="72.93" arrivalSpeed="16.05" duration="128.00" routeLength="1177.41" waitingTime="12.00" waitingCount="2" stopTime="0.00" timeLoss="52.23" rerouteNo="0" devices="tripinfo_veh127" vType="passenger" speedFactor="1.18" vaporized=""/>
    <tripinfo id="veh142" depart="74.00" departLane="647262856_1" departPos="324.15" departSpeed="0.00" departDelay="0.16" arrival="195.00" arrivalLane="222609002#4_1" arrivalPos="52.31" arrivalSpeed="14.49" duration="121.00" routeLength="1364.87" waitingTime="0.00" waitingCount="0" stopTime="0.00" timeLoss="24.45" rerouteNo="0" devices="tripinfo_veh142" vType="passenger" speedFactor="1.06" vaporized=""/>
    <tripinfo id="veh29" depart="16.00" departLane="-43547579#4_1" departPos="42.37" departSpeed="0.00" departDelay="0.92" arrival="197.00" arrivalLane="-859728205_0" arrivalPos="61.75" arrivalSpeed="4.81" duration="181.00" routeLength="1704.78" waitingTime="7.00" waitingCount="1" stopTime="0.00" timeLoss="39.04" rerouteNo="0" devices="tripinfo_veh29" vType="passenger" speedFactor="0.97" vaporized=""/>
    <tripinfo id="veh163" depart="85.00" departLane="48778525#0_1" departPos="1.81" departSpeed="0.00" departDelay="0.24" arrival="199.00" arrivalLane="-43544179#10_1" arrivalPos="22.73" arrivalSpeed="11.89" duration="114.00" routeLength="1128.97" waitingTime="0.00" waitingCount="0" stopTime="0.00" timeLoss="21.36" rerouteNo="0" devices="tripinfo_veh163" vType="delivery" speedFactor="0.94" vaporized=""/>
    <tripinfo id="veh3" depart="2.00" departLane="48778517#0_1" departPos="25.74" departSpeed="0.00" departDelay="0.44" arrival="200.00" arrivalLane="-945793490#4_1" arrivalPos="51.67" arrivalSpeed="5.79" duration="198.00" routeLength="1777.15" waitingTime="11.00" waitingCount="1" stopTime="0.00" timeLoss="44.86" rerouteNo="0" devices="tripinfo_veh3" vType="passenger" speedFactor="1.08" vaporized=""/>
    <tripinfo id="veh123" depart="64.00" departLane="-1136283361_0" departPos="8.05" departSpeed="0.00" departDelay="0.04" arrival="200.00" arrivalLane="-984521611#0_0" arrivalPos="6.06" arrivalSpeed="5.05" duration="136.00" routeLength="1236.16" waitingTime="1.00" waitingCount="1" stopTime="0.00" timeLoss="32.45" rerouteNo="0" devices="tripinfo_veh123" vType="motorcycle" speedFactor="1.04" vaporized=""/>
    <tripinfo id="veh10" depart="6.00" departLane="-92198453#0_1" departPos="145.97" departSpeed="0.00" departDelay="0.80" arrival="202.00" arrivalLane="250295383#1_1" arrivalPos="60.77" arrivalSpeed="15.48" duration="196.00" routeLength="2622.45" waitingTime="0.00" waitingCount="0" stopTime="0.00" timeLoss="25.43" rerouteNo="0" devices="tripinfo_veh10" vType="passenger" speedFactor="1.12" vaporized=""/>
    <tripinfo id="veh159" depart="83.00" departLane="-43546064#2_1" departPos="19.88" departSpeed="0.00" departDelay="0.32" arrival="205.00" arrivalLane="43546688#2_1" arrivalPos="41.74" arrivalSpeed="14.26" duration="122.00" routeLength="1508.29" waitingTime="0.00" waitingCount="0" stopTime="0.00" timeLoss="20.40" rerouteNo="0" devices="tripinfo_veh159" vType="passenger" speedFactor="1.10" vaporized=""/>
    <tripinfo id="veh37" depart="20.00" departLane="-40330575#3_1" departPos="15.68" departSpeed="0.00" departDelay="0.76" arrival="206.00" arrivalLane="48736640#1_1" arrivalPos="66.91" arrivalSpeed="13.18" duration="186.00" routeLength="1938.57" waitingTime="15.00" waitingCount="1" stopTime="0.00" timeLoss="43.09" rerouteNo="0" devices="tripinfo_veh37" vType="emergency" speedFactor="1.00" vaporized=""/>
    <tripinfo id="veh137" depart="72.00" departLane="-40299264#1_1" departPos="40.13" departSpeed="0.00" departDelay="0.76" arrival="206.00" arrivalLane="48736612#3_1" arrivalPos="54.88" arrivalSpeed="15.02" duration="134.00" routeLength="1185.07" waitingTime="26.00" waitingCount="2" stopTime="0.00" timeLoss="55.30" rerouteNo="0" devices="tripinfo_veh137" vType="passenger" speedFactor="1.13" vaporized=""/>
    <tripinfo id="veh50" depart="26.00" departLane="48778473#1_1" departPos="4.75" departSpeed="0.00" departDelay="0.00" arrival="207.00" arrivalLane="-258551283#1_1" arrivalPos="55.98" arrivalSpeed="15.12" duration="181.00" routeLength="1903.80" waitingTime="27.00" waitingCount="2" stopTime="0.00" timeLoss="55.90" rerouteNo="0" devices="tripinfo_veh50" vType="passenger" speedFactor="1.12" vaporized=""/>
    <tripinfo id="veh88" depart="46.00" departLane="-40306149_1" departPos="8.99" departSpeed="0.00" departDelay="0.24" arrival="208.00" arrivalLane="-859728208#0_0" arrivalPos="24.68" arrivalSpeed="6.64" duration="162.00" routeLength="1364.60" waitingTime="34.00" waitingCount="2" stopTime="0.00" timeLoss="67.87" rerouteNo="0" devices="tripinfo_veh88" vType="passenger" speedFactor="1.25" vaporized=""/>
    <tripinfo id="veh198" depart="103.00" departLane="43544138#8_1" departPos="1.10" departSpeed="0.00" departDelay="0.04" arrival="209.00" arrivalLane="-43544179#1_1" arrivalPos="36.35" arrivalSpeed="14.90" duration="106.00" routeLength="1353.76" waitingTime="0.00" waitingCount="0" stopTime="0.00" timeLoss="18.47" rerouteNo="0" devices="tripinfo_veh198" vType="motorcycle" speedFactor="1.14" vaporized=""/>
    <tripinfo id="veh183" depart="96.00" departLane="43573547#7_1" departPos="53.62" departSpeed="0.00" departDelay="0.84" arrival="212.00" arrivalLane="48778489#3_2" arrivalPos="140.23" arrivalSpeed="12.58" duration="116.00" routeLength="794.91" waitingTime="35.00" waitingCount="2" stopTime="0.00" timeLoss="57.51" rerouteNo="0" devices="tripinfo_veh183" vType="motorcycle" speedFactor="1.01" vaporized=""/>
    <tripinfo id="veh383" depart="200.00" departLane="48736658_1" departPos="23.21" departSpeed="0.00" departDelay="0.84" arrival="213.00" arrivalLane="-48736657#0_1" arrivalPos="65.02" arrivalSpeed="14.91" duration="13.00" routeLength="110.99" waitingTime="0.00" waitingCount="0" stopTime="0.00" timeLoss="5.39" rerouteNo="0" devices="tripinfo_veh383" vType="passenger" speedFactor="1.12" vaporized=""/>
    <tripinfo id="veh136" depart="72.00" departLane="-48778508#5_1" departPos="3.10" departSpeed="0.00" departDelay="1.28" arrival="214.00" arrivalLane="671642324_1" arrivalPos="52.30" arrivalSpeed="10.36" duration="142.00" routeLength="1256.37" waitingTime="1.00" waitingCount="1" stopTime="0.00" timeLoss="31.76" rerouteNo="0" devices="tripinfo_veh136" vType="motorcycle" speedFactor="0.91" vaporized=""/>
    <tripinfo id="veh13" depart="7.00" departLane="-160010389#1_0" departPos="73.04" departSpeed="0.00" departDelay="0.24" arrival="215.00" arrivalLane="48736656#0_1" arrivalPos="64.41" arrivalSpeed="13.49" duration="208.00" routeLength="2698.47" waitingTime="0.00" waitingCount="0" stopTime="0.00" timeLoss="18.22" rerouteNo="0" devices="tripinfo_veh13" vType="passenger" speedFactor="1.04" vaporized=""/>