<?xml version="1.0" encoding="UTF-8"?>

<!-- generated on 2025-06-12 12:31:45 by Eclipse SUMO sumo Version 1.22.0
<sumoConfiguration xmlns:xsi="http://www.w3.org/2001/XMLSchema-instance" xsi:noNamespaceSchemaLocation="http://sumo.dlr.de/xsd/sumoConfiguration.xsd">

    <input>
        <net-file value="osm.net.xml"/>
        <route-files value="full.rou.xml, ped.rou.xml, truck.rou.xml"/>
        <additional-files value="osm.poly.xml, vtypes.xml"/>
    </input>

    <output>
        <summary-output value="summary.xml"/>
        <tripinfo-output value="E:\licenta\oras-mediu\2025-06-05-11-45-23\baseline_outputs\tripinfo_baseline_ep9.xml"/>
    </output>

    <processing>
        <ignore-route-errors value="true"/>
        <tls.actuated.jam-threshold value="30"/>
    </processing>

    <routing>
        <device.rerouting.adaptation-steps value="18"/>
        <device.rerouting.adaptation-interval value="10"/>
    </routing>

    <report>
        <verbose value="true"/>
        <duration-log.statistics value="true"/>
        <no-step-log value="true"/>
    </report>

    <traci_server>
        <remote-port value="64487"/>
    </traci_server>

    <gui_only>
        <gui-settings-file value="osm.view.xml"/>
    </gui_only>

</sumoConfiguration>
-->

<tripinfos xmlns:xsi="http://www.w3.org/2001/XMLSchema-instance" xsi:noNamespaceSchemaLocation="http://sumo.dlr.de/xsd/tripinfo_file.xsd">
    <tripinfo id="veh14" depart="8.00" departLane="-48778472_1" departPos="46.53" departSpeed="0.00" departDelay="0.44" arrival="49.00" arrivalLane="-256555440#1_1" arrivalPos="58.59" arrivalSpeed="13.83" duration="41.00" routeLength="391.79" waitingTime="0.00" waitingCount="0" stopTime="0.00" timeLoss="10.81" rerouteNo="0" devices="tripinfo_veh14" vType="passenger" speedFactor="1.02" vaporized=""/>
    <tripinfo id="veh52" depart="29.00" departLane="859738688_0" departPos="197.24" departSpeed="0.00" departDelay="0.92" arrival="52.00" arrivalLane="-48736612#1_1" arrivalPos="56.12" arrivalSpeed="12.34" duration="23.00" routeLength="212.07" waitingTime="0.00" waitingCount="0" stopTime="0.00" timeLoss="3.88" rerouteNo="0" devices="tripinfo_veh52" vType="passenger" speedFactor="0.96" vaporized=""/>
    <personinfo id="ped2" depart="10.00" type="DEFAULT_PEDTYPE" speedFactor="0.88" duration="55.00" waitingTime="0.00" timeLoss="4.67" traveltime="55.00">
        <walk depart="10.00" departPos="0.00" arrival="65.00" arrivalPos="48.01" duration="55.00" routeLength="61.21" timeLoss="4.67" maxSpeed="1.22"/>
    </personinfo>
    <tripinfo id="veh72" depart="39.00" departLane="-48778500#1_1" departPos="76.50" departSpeed="0.00" departDelay="0.12" arrival="85.00" arrivalLane="48778508#5_1" arrivalPos="31.95" arrivalSpeed="13.91" duration="46.00" routeLength="455.51" waitingTime="0.00" waitingCount="0" stopTime="0.00" timeLoss="11.69" rerouteNo="0" devices="tripinfo_veh72" vType="passenger" speedFactor="1.05" vaporized=""/>
    <tripinfo id="veh10" depart="6.00" departLane="-48778449#2_1" departPos="61.71" departSpeed="0.00" departDelay="0.60" arrival="88.00" arrivalLane="-647755347#1_1" arrivalPos="36.40" arrivalSpeed="13.89" duration="82.00" routeLength="692.44" waitingTime="7.00" waitingCount="1" stopTime="0.00" timeLoss="30.07" rerouteNo="0" devices="tripinfo_veh10" vType="passenger" speedFactor="1.04" vaporized=""/>
    <tripinfo id="veh150" depart="81.00" departLane="48736616#0_1" departPos="0.45" departSpeed="0.00" departDelay="0.00" arrival="89.00" arrivalLane="48736616#1_1" arrivalPos="27.10" arrivalSpeed="12.25" duration="8.00" routeLength="52.03" waitingTime="0.00" waitingCount="0" stopTime="0.00" timeLoss="4.17" rerouteNo="0" devices="tripinfo_veh150" vType="delivery" speedFactor="0.99" vaporized=""/>
    <tripinfo id="veh70" depart="38.00" departLane="43544197#2_1" departPos="38.81" departSpeed="0.00" departDelay="0.20" arrival="97.00" arrivalLane="43544001#14_1" arrivalPos="60.31" arrivalSpeed="10.91" duration="59.00" routeLength="569.22" waitingTime="0.00" waitingCount="0" stopTime="0.00" timeLoss="12.48" rerouteNo="0" devices="tripinfo_veh70" vType="motorcycle" speedFactor="0.94" vaporized=""/>
    <tripinfo id="veh51" depart="28.00" departLane="43546039#3_1" departPos="39.31" departSpeed="0.00" departDelay="0.46" arrival="102.00" arrivalLane="-43546053#0_1" arrivalPos="315.83" arrivalSpeed="12.89" duration="74.00" routeLength="817.11" waitingTime="0.00" waitingCount="0" stopTime="0.00" timeLoss="11.62" rerouteNo="0" devices="tripinfo_veh51" vType="delivery" speedFactor="0.99" vaporized=""/>
    <tripinfo id="veh91" depart="50.00" departLane="-40236144#2_1" departPos="32.81" departSpeed="0.00" departDelay="0.86" arrival="116.00" arrivalLane="-40236228#0_1" arrivalPos="90.81" arrivalSpeed="14.07" duration="66.00" routeLength="500.22" waitingTime="16.00" waitingCount="2" stopTime="0.00" timeLoss="31.59" rerouteNo="0" devices="tripinfo_veh91" vType="passenger" speedFactor="1.10" vaporized=""/>
    <personinfo id="ped4" depart="20.00" type="DEFAULT_PEDTYPE" speedFactor="1.07" duration="104.00" waitingTime="0.00" timeLoss="10.69" traveltime="104.00">
        <walk depart="20.00" departPos="0.00" arrival="124.00" arrivalPos="1.62" duration="104.00" routeLength="138.29" timeLoss="10.69" maxSpeed="1.48"/>
    </personinfo>
    <tripinfo id="veh37" depart="20.00" departLane="222609004#0_1" departPos="11.48" departSpeed="0.00" departDelay="0.02" arrival="127.00" arrivalLane="40266907#1_1" arrivalPos="33.57" arrivalSpeed="11.20" duration="107.00" routeLength="968.16" waitingTime="11.00" waitingCount="1" stopTime="0.00" timeLoss="24.40" rerouteNo="0" devices="tripinfo_veh37" vType="passenger" speedFactor="0.88" vaporized=""/>
    <tripinfo id="veh42" depart="23.00" departLane="-48778504_1" departPos="184.15" departSpeed="0.00" departDelay="0.32" arrival="128.00" arrivalLane="-43546793_1" arrivalPos="192.09" arrivalSpeed="11.10" duration="105.00" routeLength="1073.51" waitingTime="0.00" waitingCount="0" stopTime="0.00" timeLoss="24.30" rerouteNo="0" devices="tripinfo_veh42" vType="motorcycle" speedFactor="1.00" vaporized=""/>
    <tripinfo id="veh3" depart="2.00" departLane="43544179#7_1" departPos="1.99" departSpeed="0.00" departDelay="0.38" arrival="131.00" arrivalLane="289113877#0_1" arrivalPos="318.67" arrivalSpeed="12.17" duration="129.00" routeLength="1329.00" waitingTime="0.00" waitingCount="0" stopTime="0.00" timeLoss="24.08" rerouteNo="0" devices="tripinfo_veh3" vType="passenger" speedFactor="0.94" vaporized=""/>
    <tripinfo id="veh85" depart="46.00" departLane="-48778510#1_1" departPos="89.40" departSpeed="0.00" departDelay="0.10" arrival="131.00" arrivalLane="48778485#1_1" arrivalPos="18.27" arrivalSpeed="12.05" duration="85.00" routeLength="729.20" waitingTime="7.00" waitingCount="1" stopTime="0.00" timeLoss="29.65" rerouteNo="0" devices="tripinfo_veh85" vType="passenger" speedFactor="1.03" vaporized=""/>
    <tripinfo id="veh44" depart="24.00" departLane="43546460#3_1" departPos="35.94" departSpeed="0.00" departDelay="0.24" arrival="132.00" arrivalLane="1205541343#1_1" arrivalPos="33.13" arrivalSpeed="4.84" duration="108.00" routeLength="1012.90" waitingTime="0.00" waitingCount="0" stopTime="0.00" timeLoss="16.42" rerouteNo="0" devices="tripinfo_veh44" vType="motorcycle" speedFactor="0.90" vaporized=""/>
    <tripinfo id="veh67" depart="37.00" departLane="43544179#7_1" departPos="44.80" departSpeed="0.00" departDelay="0.82" arrival="136.00" arrivalLane="222605089#1_1" arrivalPos="63.12" arrivalSpeed="12.65" duration="99.00" routeLength="1162.02" waitingTime="0.00" waitingCount="0" stopTime="0.00" timeLoss="11.59" rerouteNo="0" devices="tripinfo_veh67" vType="passenger" speedFactor="0.98" vaporized=""/>
    <tripinfo id="veh59" depart="32.00" departLane="-48797768_1" departPos="14.43" departSpeed="0.00" departDelay="0.14" arrival="137.00" arrivalLane="48778481#8_2" arrivalPos="12.21" arrivalSpeed="13.58" duration="105.00" routeLength="1049.08" waitingTime="2.00" waitingCount="1" stopTime="0.00" timeLoss="28.41" rerouteNo="0" devices="tripinfo_veh59" vType="passenger" speedFactor="1.06" vaporized=""/>
    <tripinfo id="veh5" depart="3.00" departLane="1136119743#0_1" departPos="13.34" departSpeed="0.00" departDelay="0.30" arrival="144.00" arrivalLane="353939570#3_2" arrivalPos="276.18" arrivalSpeed="14.07" duration="141.00" routeLength="1572.53" waitingTime="0.00" waitingCount="0" stopTime="0.00" timeLoss="18.40" rerouteNo="0" devices="tripinfo_veh5" vType="delivery" speedFactor="1.05" vaporized=""/>
    <tripinfo id="veh153" depart="83.00" departLane="-43544202#1_1" departPos="93.51" departSpeed="0.00" departDelay="0.38" arrival="147.00" arrivalLane="43545645#1_1" arrivalPos="98.66" arrivalSpeed="11.59" duration="64.00" routeLength="574.76" waitingTime="0.00" waitingCount="0" stopTime="0.00" timeLoss="14.63" rerouteNo="0" devices="tripinfo_veh153" vType="passenger" speedFactor="0.90" vaporized=""/>
    <tripinfo id="veh7" depart="4.00" departLane="48778480#0_2" departPos="208.31" departSpeed="0.00" departDelay="0.22" arrival="150.00" arrivalLane="222605084#4_1" arrivalPos="16.56" arrivalSpeed="5.53" duration="146.00" routeLength="1390.91" waitingTime="7.00" waitingCount="1" stopTime="0.00" timeLoss="34.74" rerouteNo="0" devices="tripinfo_veh7" vType="passenger" speedFactor="1.12" vaporized=""/>
    <tripinfo id="veh56" depart="31.00" departLane="-43544184#3_1" departPos="29.18" departSpeed="0.00" departDelay="0.76" arrival="150.00" arrivalLane="996489799#0_0" arrivalPos="0.20" arrivalSpeed="5.57" duration="119.00" routeLength="1426.90" waitingTime="0.00" waitingCount="0" stopTime="0.00" timeLoss="15.71" rerouteNo="0" devices="tripinfo_veh56" vType="passenger" speedFactor="1.02" vaporized=""/>
    <personinfo id="ped6" depart="30.00" type="DEFAULT_PEDTYPE" speedFactor="0.98" duration="125.00" waitingTime="0.00" timeLoss="13.01" traveltime="125.00">
        <walk depart="30.00" departPos="0.00" arrival="155.00" arrivalPos="17.33" duration="125.00" routeLength="151.67" timeLoss="13.01" maxSpeed="1.35"/>
    </personinfo>
    <tripinfo id="veh29" depart="16.00" departLane="-1136301819_1" departPos="8.87" departSpeed="0.00" departDelay="0.34" arrival="156.00" arrivalLane="994066252#0_0" arrivalPos="11.89" arrivalSpeed="5.81" duration="140.00" routeLength="1256.53" waitingTime="25.00" waitingCount="1" stopTime="0.00" timeLoss="52.18" rerouteNo="0" devices="tripinfo_veh29" vType="passenger" speedFactor="1.10" vaporized=""/>
    <tripinfo id="veh39" depart="22.00" departLane="383582497_0" departPos="28.70" departSpeed="0.00" departDelay="0.94" arrival="156.00" arrivalLane="48736613#0_1" arrivalPos="31.11" arrivalSpeed="15.26" duration="134.00" routeLength="1701.57" waitingTime="0.00" waitingCount="0" stopTime="0.00" timeLoss="12.53" rerouteNo="0" devices="tripinfo_veh39" vType="passenger" speedFactor="1.17" vaporized=""/>
    <tripinfo id="veh63" depart="35.00" departLane="43546648#0_1" departPos="96.80" departSpeed="0.00" departDelay="0.98" arrival="156.00" arrivalLane="-996984133_1" arrivalPos="75.36" arrivalSpeed="8.42" duration="121.00" routeLength="1429.05" waitingTime="0.00" waitingCount="0" stopTime="0.00" timeLoss="19.16" rerouteNo="0" devices="tripinfo_veh63" vType="passenger" speedFactor="1.09" vaporized=""/>
    <tripinfo id="veh127" depart="69.00" departLane="-33909936#3_1" departPos="5.53" departSpeed="0.00" departDelay="0.42" arrival="158.00" arrivalLane="48778503#1_1" arrivalPos="56.23" arrivalSpeed="13.72" duration="89.00" routeLength="775.57" waitingTime="0.00" waitingCount="0" stopTime="0.00" timeLoss="22.59" rerouteNo="0" devices="tripinfo_veh127" vType="delivery" speedFactor="1.00" vaporized=""/>
    <tripinfo id="veh20" depart="11.00" departLane="43544184#2_1" departPos="30.33" departSpeed="0.00" departDelay="0.20" arrival="161.00" arrivalLane="40266619_1" arrivalPos="33.64" arrivalSpeed="13.92" duration="150.00" routeLength="1777.84" waitingTime="0.00" waitingCount="0" stopTime="0.00" timeLoss="23.23" rerouteNo="0" devices="tripinfo_veh20" vType="passenger" speedFactor="1.03" vaporized=""/>
    <tripinfo id="veh68" depart="37.00" departLane="43547579#3_1" departPos="45.46" departSpeed="0.00" departDelay="0.28" arrival="162.00" arrivalLane="40299739#3_1" arrivalPos="81.39" arrivalSpeed="13.27" duration="125.00" routeLength="1268.46" waitingTime="0.00" waitingCount="0" stopTime="0.00" timeLoss="25.00" rerouteNo="0" devices="tripinfo_veh68" vType="passenger" speedFactor="0.98" vaporized=""/>
    <tripinfo id="veh88" depart="48.00" departLane="-1135772297_0" departPos="0.39" departSpeed="0.00" departDelay="0.48" arrival="162.00" arrivalLane="647621858_0" arrivalPos="84.34" arrivalSpeed="6.58" duration="114.00" routeLength="1236.45" waitingTime="0.00" waitingCount="0" stopTime="0.00" timeLoss="22.58" rerouteNo="0" devices="tripinfo_veh88" vType="passenger" speedFactor="1.25" vaporized=""/>
    <tripinfo id="veh1" depart="1.00" departLane="-43544138#7_1" departPos="2.00" departSpeed="0.00" departDelay="0.46" arrival="165.00" arrivalLane="-1205541342_1" arrivalPos="22.37" arrivalSpeed="5.99" duration="164.00" routeLength="1995.97" waitingTime="0.00" waitingCount="0" stopTime="0.00" timeLoss="22.93" rerouteNo="0" devices="tripinfo_veh1" vType="passenger" speedFactor="1.08" vaporized=""/>
    <tripinfo id="veh78" depart="43.00" departLane="-48778503#1_1" departPos="41.62" departSpeed="0.00" departDelay="0.88" arrival="166.00" arrivalLane="48778473#1_1" arrivalPos="30.96" arrivalSpeed="13.15" duration="123.00" routeLength="1417.30" waitingTime="6.00" waitingCount="1" stopTime="0.00" timeLoss="27.41" rerouteNo="0" devices="tripinfo_veh78" vType="passenger" speedFactor="1.10" vaporized=""/>
    <tripinfo id="veh271" depart="147.00" departLane="43544624#3_1" departPos="76.76" departSpeed="0.00" departDelay="0.66" arrival="166.00" arrivalLane="-43544001#6_1" arrivalPos="38.33" arrivalSpeed="12.19" duration="19.00" routeLength="155.56" waitingTime="0.00" waitingCount="0" stopTime="0.00" timeLoss="5.08" rerouteNo="0" devices="tripinfo_veh271" vType="passenger" speedFactor="0.90" vaporized=""/>
    <tripinfo id="veh151" depart="82.00" departLane="40266907#1_1" departPos="21.93" departSpeed="0.00" departDelay="0.46" arrival="170.00" arrivalLane="984521611#1_0" arrivalPos="22.34" arrivalSpeed="5.78" duration="88.00" routeLength="724.91" waitingTime="4.00" waitingCount="1" stopTime="0.00" timeLoss="27.29" rerouteNo="0" devices="tripinfo_veh151" vType="passenger" speedFactor="1.07" vaporized=""/>
    <tripinfo id="veh163" depart="89.00" departLane="43547017#5_1" departPos="2.86" departSpeed="0.00" departDelay="0.98" arrival="171.00" arrivalLane="43546935#1_1" arrivalPos="51.34" arrivalSpeed="14.33" duration="82.00" routeLength="498.04" waitingTime="2.00" waitingCount="1" stopTime="0.00" timeLoss="45.61" rerouteNo="0" devices="tripinfo_veh163" vType="passenger" speedFactor="1.07" vaporized=""/>
    <tripinfo id="veh38" depart="21.00" departLane="48778508#5_1" departPos="31.21" departSpeed="0.00" departDelay="0.48" arrival="172.00" arrivalLane="40269009#0_1" arrivalPos="22.67" arrivalSpeed="12.59" duration="151.00" routeLength="1708.56" waitingTime="1.00" waitingCount="1" stopTime="0.00" timeLoss="29.52" rerouteNo="0" devices="tripinfo_veh38" vType="passenger" speedFactor="1.06" vaporized=""/>
    <personinfo id="ped10" depart="50.00" type="DEFAULT_PEDTYPE" speedFactor="1.08" duration="124.00" waitingTime="0.00" timeLoss="12.11" traveltime="124.00">
        <walk depart="50.00" departPos="0.00" arrival="174.00" arrivalPos="46.83" duration="124.00" routeLength="167.45" timeLoss="12.11" maxSpeed="1.50"/>
    </personinfo>
    <tripinfo id="veh98" depart="53.00" departLane="174818022#2_0" departPos="89.54" departSpeed="0.00" departDelay="0.08" arrival="174.00" arrivalLane="-48736612#5_1" arrivalPos="15.57" arrivalSpeed="12.63" duration="121.00" routeLength="895.75" waitingTime="13.00" waitingCount="1" stopTime="0.00" timeLoss="36.47" rerouteNo="0" devices="tripinfo_veh98" vType="motorcycle" speedFactor="0.94" vaporized=""/>
    <tripinfo id="veh189" depart="103.00" departLane="-647998063#3_1" departPos="84.50" departSpeed="0.00" departDelay="0.94" arrival="175.00" arrivalLane="-43544001#6_1" arrivalPos="38.33" arrivalSpeed="11.80" duration="72.00" routeLength="750.78" waitingTime="0.00" waitingCount="0" stopTime="0.00" timeLoss="10.40" rerouteNo="0" devices="tripinfo_veh189" vType="passenger" speedFactor="0.89" vaporized=""/>
    <tripinfo id="veh2" depart="2.00" departLane="578560104#2_1" departPos="72.32" departSpeed="0.00" departDelay="0.92" arrival="176.00" arrivalLane="43546092_1" arrivalPos="223.82" arrivalSpeed="14.10" duration="174.00" routeLength="2134.41" waitingTime="0.00" waitingCount="0" stopTime="0.00" timeLoss="25.78" rerouteNo="0" devices="tripinfo_veh2" vType="passenger" speedFactor="1.08" vaporized=""/>
    <tripinfo id="veh47" depart="26.00" departLane="48778508#4_1" departPos="20.94" departSpeed="0.00" departDelay="0.62" arrival="177.00" arrivalLane="647226815#1_1" arrivalPos="42.65" arrivalSpeed="13.11" duration="151.00" routeLength="1633.74" waitingTime="3.00" waitingCount="1" stopTime="0.00" timeLoss="28.64" rerouteNo="0" devices="tripinfo_veh47" vType="passenger" speedFactor="1.00" vaporized=""/>
    <tripinfo id="veh87" depart="47.00" departLane="-1250915721#0_1" departPos="11.37" departSpeed="0.00" departDelay="0.02" arrival="177.00" arrivalLane="40305706#0_1" arrivalPos="32.26" arrivalSpeed="12.95" duration="130.00" routeLength="1020.39" waitingTime="16.00" waitingCount="3" stopTime="0.00" timeLoss="45.21" rerouteNo="0" devices="tripinfo_veh87" vType="delivery" speedFactor="1.03" vaporized=""/>
    <tripinfo id="veh22" depart="12.00" departLane="40345956#0_1" departPos="89.51" departSpeed="0.00" departDelay="0.12" arrival="178.00" arrivalLane="-859732802#1_0" arrivalPos="135.75" arrivalSpeed="4.25" duration="166.00" routeLength="1103.81" waitingTime="30.00" waitingCount="1" stopTime="0.00" timeLoss="55.37" rerouteNo="0" devices="tripinfo_veh22" vType="passenger" speedFactor="0.89" vaporized=""/>
    <tripinfo id="veh197" depart="107.00" departLane="223942064#0.267_0" departPos="179.93" departSpeed="0.00" departDelay="0.62" arrival="178.00" arrivalLane="-994066250_0" arrivalPos="136.88" arrivalSpeed="3.13" duration="71.00" routeLength="531.08" waitingTime="0.00" waitingCount="0" stopTime="0.00" timeLoss="16.28" rerouteNo="0" devices="tripinfo_veh197" vType="motorcycle" speedFactor="1.04" vaporized=""/>
    <tripinfo id="veh65" depart="36.00" departLane="859728208#1_0" departPos="0.02" departSpeed="0.00" departDelay="0.90" arrival="179.00" arrivalLane="-43546570#1_1" arrivalPos="78.56" arrivalSpeed="13.88" duration="143.00" routeLength="1292.82" waitingTime="12.00" waitingCount="1" stopTime="0.00" timeLoss="35.44" rerouteNo="0" devices="tripinfo_veh65" vType="passenger" speedFactor="1.02" vaporized=""/>
    <tripinfo id="veh258" depart="140.00" departLane="1250915726_1" departPos="304.43" departSpeed="0.00" departDelay="0.68" arrival="179.00" arrivalLane="1251292610_1" arrivalPos="10.57" arrivalSpeed="5.08" duration="39.00" routeLength="197.15" waitingTime="0.00" waitingCount="0" stopTime="0.00" timeLoss="5.33" rerouteNo="0" devices="tripinfo_veh258" vType="passenger" speedFactor="1.07" vaporized=""/>
    <tripinfo id="veh84" depart="46.00" departLane="273836978#0_1" departPos="0.11" departSpeed="0.00" departDelay="0.64" arrival="181.00" arrivalLane="40299739#2_1" arrivalPos="43.24" arrivalSpeed="14.40" duration="135.00" routeLength="1250.50" waitingTime="17.00" waitingCount="1" stopTime="0.00" timeLoss="44.91" rerouteNo="0" devices="tripinfo_veh84" vType="passenger" speedFactor="1.08" vaporized=""/>
    <tripinfo id="veh48" depart="26.00" departLane="40236146_1" departPos="31.68" departSpeed="0.00" departDelay="0.08" arrival="183.00" arrivalLane="-43544001#13_1" arrivalPos="78.45" arrivalSpeed="15.32" duration="157.00" routeLength="2063.13" waitingTime="0.00" waitingCount="0" stopTime="0.00" timeLoss="22.14" rerouteNo="0" devices="tripinfo_veh48" vType="passenger" speedFactor="1.12" vaporized=""/>
    <tripinfo id="veh261" depart="141.00" departLane="-43546343#2_1" departPos="4.35" departSpeed="0.00" departDelay="0.06" arrival="185.00" arrivalLane="-43547579#4_1" arrivalPos="251.60" arrivalSpeed="14.61" duration="44.00" routeLength="548.51" waitingTime="0.00" waitingCount="0" stopTime="0.00" timeLoss="8.62" rerouteNo="0" devices="tripinfo_veh261" vType="passenger" speedFactor="1.13" vaporized=""/>
    <tripinfo id="veh15" depart="9.00" departLane="-945793490#1_1" departPos="6.42" departSpeed="0.00" departDelay="0.90" arrival="186.00" arrivalLane="-353939570#1_1" arrivalPos="79.98" arrivalSpeed="3.99" duration="177.00" routeLength="730.90" waitingTime="0.00" waitingCount="0" stopTime="0.00" timeLoss="13.52" rerouteNo="0" devices="tripinfo_veh15" vType="bicycle" speedFactor="0.80" vaporized=""/>
    <tripinfo id="veh79" depart="43.00" departLane="48778473#2_1" departPos="29.61" departSpeed="0.00" departDelay="0.34" arrival="189.00" arrivalLane="-223883703_0" arrivalPos="83.93" arrivalSpeed="5.45" duration="146.00" routeLength="1431.83" waitingTime="11.00" waitingCount="1" stopTime="0.00" timeLoss="31.02" rerouteNo="0" devices="tripinfo_veh79" vType="emergency" speedFactor="1.00" vaporized=""/>
    <tripinfo id="veh94" depart="51.00" departLane="250295383#3_1" departPos="9.73" departSpeed="0.00" departDelay="0.24" arrival="191.00" arrivalLane="-859728208#0_0" arrivalPos="24.68" arrivalSpeed="6.19" duration="140.00" routeLength="1252.52" waitingTime="16.00" waitingCount="1" stopTime="0.00" timeLoss="43.03" rerouteNo="0" devices="tripinfo_veh94" vType="passenger" speedFactor="1.13" vaporized=""/>
    <tripinfo id="veh31" depart="17.00" departLane="1136301814#1_1" departPos="2.53" departSpeed="0.00" departDelay="0.26" arrival="195.00" arrivalLane="-33913538#2_1" arrivalPos="72.81" arrivalSpeed="13.39" duration="178.00" routeLength="1538.20" waitingTime="46.00" waitingCount="2" stopTime="0.00" timeLoss="68.71" rerouteNo="0" devices="tripinfo_veh31" vType="passenger" speedFactor="1.03" vaporized=""/>
    <tripinfo id="veh0" depart="0.00" departLane="48736623_1" departPos="115.50" departSpeed="0.00" departDelay="0.00" arrival="196.00" arrivalLane="-43546343#2_1" arrivalPos="60.11" arrivalSpeed="13.45" duration="196.00" routeLength="1479.99" waitingTime="60.00" waitingCount="3" stopTime="0.00" timeLoss="84.86" rerouteNo="0" devices="tripinfo_veh0" vType="motorcycle" speedFactor="0.98" vaporized=""/>
    <tripinfo id="veh97" depart="53.00" departLane="40299264#2_1" departPos="4.74" departSpeed="0.00" departDelay="0.62" arrival="198.00" arrivalLane="48736632#1_1" arrivalPos="56.65" arrivalSpeed="13.02" duration="145.00" routeLength="1107.20" waitingTime="37.00" waitingCount="2" stopTime="0.00" timeLoss="59.39" rerouteNo="0" devices="tripinfo_veh97" vType="motorcycle" speedFactor="0.98" vaporized=""/>
    <tripinfo id="veh24" depart="13.00" departLane="994066252#1_0" departPos="12.70" departSpeed="0.00" departDelay="0.04" arrival="199.00" arrivalLane="-48778429#1_1" arrivalPos="67.84" arrivalSpeed="14.76" duration="186.00" routeLength="2455.56" waitingTime="0.00" waitingCount="0" stopTime="0.00" timeLoss="19.45" rerouteNo="0" devices="tripinfo_veh24" vType="passenger" speedFactor="1.12" vaporized=""/>
    <tripinfo id="veh19" depart="11.00" departLane="43547017#4_1" departPos="0.31" departSpeed="0.00" departDelay="0.74" arrival="201.00" arrivalLane="-1250915720#4_1" arrivalPos="21.24" arrivalSpeed="4.35" duration="190.00" routeLength="1758.81" waitingTime="6.00" waitingCount="1" stopTime="0.00" timeLoss="28.17" rerouteNo="0" devices="tripinfo_veh19" vType="passenger" speedFactor="0.87" vaporized=""/>
    <tripinfo id="veh225" depart="122.00" departLane="40265775#0_1" departPos="50.44" departSpeed="0.00" departDelay="0.50" arrival="201.00" arrivalLane="222609002#0_1" arrivalPos="115.28" arrivalSpeed="12.24" duration="79.00" routeLength="830.53" waitingTime="0.00" waitingCount="0" stopTime="0.00" timeLoss="13.85" rerouteNo="0" devices="tripinfo_veh225" vType="passenger" speedFactor="0.95" vaporized=""/>
    <tripinfo id="veh40" depart="22.00" departLane="48736625_1" departPos="21.88" departSpeed="0.00" departDelay="0.40" arrival="205.00" arrivalLane="984508802_0" arrivalPos="57.38" arrivalSpeed="4.56" duration="183.00" routeLength="2003.74" waitingTime="0.00" waitingCount="0" stopTime="0.00" timeLoss="30.20" rerouteNo="0" devices="tripinfo_veh40" vType="passenger" speedFactor="1.05" vaporized=""/>
    <tripinfo id="veh6" depart="4.00" departLane="48778489#0_1" departPos="1.60" departSpeed="0.00" departDelay="0.76" arrival="206.00" arrivalLane="48778431#10_1" arrivalPos="349.08" arrivalSpeed="12.04" duration="202.00" routeLength="2321.23" waitingTime="4.00" waitingCount="1" stopTime="0.00" timeLoss="20.77" rerouteNo="0" devices="tripinfo_veh6" vType="passenger" speedFactor="0.92" vaporized=""/>
    <tripinfo id="veh11" depart="6.00" departLane="-143207979#4_1" departPos="14.66" departSpeed="0.00" departDelay="0.06" arrival="206.00" arrivalLane="40269009#1_1" arrivalPos="27.44" arrivalSpeed="12.79" duration="200.00" routeLength="1991.04" waitingTime="8.00" waitingCount="2" stopTime="0.00" timeLoss="46.14" rerouteNo="0" devices="tripinfo_veh11" vType="delivery" speedFactor="0.97" vaporized=""/>
    <tripinfo id="veh108" depart="59.00" departLane="984521612#1_0" departPos="28.65" departSpeed="0.00" departDelay="0.68" arrival="207.00" arrivalLane="-48778493#0_1" arrivalPos="6.51" arrivalSpeed="13.20" duration="148.00" routeLength="1275.67" waitingTime="21.00" waitingCount="2" stopTime="0.00" timeLoss="52.88" rerouteNo="0" devices="tripinfo_veh108" vType="passenger" speedFactor="1.04" vaporized=""/>
    <tripinfo id="veh143" depart="78.00" departLane="-48797774_1" departPos="9.37" departSpeed="0.00" departDelay="0.78" arrival="207.00" arrivalLane="-40330557#2_1" arrivalPos="99.94" arrivalSpeed="12.06" duration="129.00" routeLength="1318.25" waitingTime="0.00" waitingCount="0" stopTime="0.00" timeLoss="28.17" rerouteNo="0" devices="tripinfo_veh143" vType="motorcycle" speedFactor="0.97" vaporized=""/>
    <tripinfo id="veh296" depart="160.00" departLane="945793490#3_1" departPos="16.86" departSpeed="0.00" departDelay="0.16" arrival="210.00" arrivalLane="-1251292611_1" arrivalPos="3.48" arrivalSpeed="4.78" duration="50.00" routeLength="215.71" waitingTime="0.00" waitingCount="0" stopTime="0.00" timeLoss="6.87" rerouteNo="0" devices="tripinfo_veh296" vType="passenger" speedFactor="0.90" vaporized=""/>
    <tripinfo id="veh342" depart="185.00" departLane="-40304754#5_1" departPos="83.65" departSpeed="0.00" departDelay="0.32" arrival="210.00" arrivalLane="40265777#1_1" arrivalPos="65.39" arrivalSpeed="11.85" duration="25.00" routeLength="224.78" waitingTime="0.00" waitingCount="0" stopTime="0.00" timeLoss="6.61" rerouteNo="0" devices="tripinfo_veh342" vType="passenger" speedFactor="0.93" vaporized=""/>
    <tripinfo id="veh187" depart="101.00" departLane="996984134_0" departPos="36.00" departSpeed="0.00" departDelay="0.02" arrival="211.00" arrivalLane="-48778461#1_1" arrivalPos="23.84" arrivalSpeed="13.11" duration="110.00" routeLength="1151.54" waitingTime="0.00" waitingCount="0" stopTime="0.00" timeLoss="27.78" rerouteNo="0" devices="tripinfo_veh187" vType="motorcycle" speedFactor="1.14" vaporized=""/>
    <tripinfo id="veh293" depart="159.00" departLane="-48778476_1" departPos="59.17" departSpeed="0.00" departDelay="0.78" arrival="212.00" arrivalLane="-40304754#4_1" arrivalPos="101.37" arrivalSpeed="12.79" duration="53.00" routeLength="527.35" waitingTime="0.00" waitingCount="0" stopTime="0.00" timeLoss="10.58" rerouteNo="0" devices="tripinfo_veh293" vType="passenger" speedFactor="0.97" vaporized=""/>
    <tripinfo id="veh8" depart="5.00" departLane="-43546785_1" departPos="73.02" departSpeed="0.00" departDelay="0.68" arrival="213.00" arrivalLane="-383582511#0_0" arrivalPos="95.20" arrivalSpeed="2.23" duration="208.00" routeLength="1673.08" waitingTime="0.00" waitingCount="0" stopTime="0.00" timeLoss="33.97" rerouteNo="0" devices="tripinfo_veh8" vType="passenger" speedFactor="0.90" vaporized=""/>
    <personinfo id="ped3" depart="15.00" type="DEFAULT_PEDTYPE" speedFactor="1.12" duration="200.00" waitingTime="0.00" timeLoss="20.36" traveltime="200.00">
        <walk depart="15.00" departPos="0.00" arrival="215.00" arrivalPos="54.11" duration="200.00" routeLength="279.66" timeLoss="20.36" maxSpeed="1.56"/>
    </personinfo>
    <tripinfo id="veh86" depart="47.00" departLane="-578560104#5_1" departPos="15.99" departSpeed="0.00" departDelay="0.56" arrival="215.00" arrivalLane="-48778508#4_1" arrivalPos="24.74" arrivalSpeed="12.53" duration="168.00" routeLength="1255.82" waitingTime="44.00" waitingCount="1" stopTime="0.00" timeLoss="72.16" rerouteNo="0" devices="tripinfo_veh86" vType="passenger" speedFactor="0.98" vaporized=""/>
    <tripinfo id="veh95" depart="52.00" departLane="40329447_1" departPos="10.49" departSpeed="0.00" departDelay="0.70" arrival="218.00" arrivalLane="-994066252#0_0" arrivalPos="12.73" arrivalSpeed="4.24" duration="166.00" routeLength="1551.73" waitingTime="16.00" waitingCount="1" stopTime="0.00" timeLoss="38.75" rerouteNo="0" devices="tripinfo_veh95" vType="passenger" speedFactor="0.99" vaporized=""/>
    <tripinfo id="veh45" depart="25.00" departLane="859734514#0_0" departPos="4.24" departSpeed="0.00" departDelay="0.70" arrival="219.00" arrivalLane="578560104#5_1" arrivalPos="64.77" arrivalSpeed="12.71" duration="194.00" routeLength="1496.79" waitingTime="39.00" waitingCount="2" stopTime="0.00" timeLoss="66.24" rerouteNo="0" devices="tripinfo_veh45" vType="delivery" speedFactor="0.98" vaporized=""/>