<?xml version="1.0" encoding="UTF-8"?>

<!-- generated on 2025-06-12 12:32:10 by Eclipse SUMO sumo Version 1.22.0
<sumoConfiguration xmlns:xsi="http://www.w3.org/2001/XMLSchema-instance" xsi:noNamespaceSchemaLocation="http://sumo.dlr.de/xsd/sumoConfiguration.xsd">

    <input>
        <net-file value="osm.net.xml"/>
        <route-files value="full.rou.xml, ped.rou.xml, truck.rou.xml"/>
        <additional-files value="osm.poly.xml, vtypes.xml"/>
    </input>

    <output>
        <summary-output value="summary.xml"/>
        <tripinfo-output value="E:\licenta\oras-mediu\2025-06-05-11-45-23\baseline_outputs\tripinfo_baseline_ep11.xml"/>
    </output>

    <processing>
        <ignore-route-errors value="true"/>
        <tls.actuated.jam-threshold value="30"/>
    </processing>

    <routing>
        <device.rerouting.adaptation-steps value="18"/>
        <device.rerouting.adaptation-interval value="10"/>
    </routing>

    <report>
        <verbose value="true"/>
        <duration-log.statistics value="true"/>
        <no-step-log value="true"/>
    </report>

    <traci_server>
        <remote-port value="64500"/>
    </traci_server>

    <gui_only>
        <gui-settings-file value="osm.view.xml"/>
    </gui_only>

</sumoConfiguration>
-->

<tripinfos xmlns:xsi="http://www.w3.org/2001/XMLSchema-instance" xsi:noNamespaceSchemaLocation="http://sumo.dlr.de/xsd/tripinfo_file.xsd">
    <tripinfo id="veh21" depart="16.00" departLane="43544179#11_1" departPos="26.22" departSpeed="0.00" departDelay="0.88" arrival="36.00" arrivalLane="-43547017#3_1" arrivalPos="47.98" arrivalSpeed="15.63" duration="20.00" routeLength="185.55" waitingTime="0.00" waitingCount="0" stopTime="0.00" timeLoss="7.26" rerouteNo="0" devices="tripinfo_veh21" vType="passenger" speedFactor="1.15" vaporized=""/>
    <personinfo id="ped1" depart="5.00" type="DEFAULT_PEDTYPE" speedFactor="0.83" duration="54.00" waitingTime="0.00" timeLoss="5.66" traveltime="54.00">
        <walk depart="5.00" departPos="0.00" arrival="59.00" arrivalPos="44.13" duration="54.00" routeLength="55.79" timeLoss="5.66" maxSpeed="1.15"/>
    </personinfo>
    <tripinfo id="veh61" depart="44.00" departLane="1054663937_1" departPos="0.59" departSpeed="0.00" departDelay="0.08" arrival="79.00" arrivalLane="-43547579#0_1" arrivalPos="243.35" arrivalSpeed="11.99" duration="35.00" routeLength="326.73" waitingTime="0.00" waitingCount="0" stopTime="0.00" timeLoss="4.50" rerouteNo="0" devices="tripinfo_veh61" vType="passenger" speedFactor="0.90" vaporized=""/>
    <tripinfo id="veh43" depart="31.00" departLane="-984513295_0" departPos="31.00" departSpeed="0.00" departDelay="0.04" arrival="82.00" arrivalLane="48736655_1" arrivalPos="17.43" arrivalSpeed="12.23" duration="51.00" routeLength="526.45" waitingTime="0.00" waitingCount="0" stopTime="0.00" timeLoss="7.98" rerouteNo="0" devices="tripinfo_veh43" vType="delivery" speedFactor="0.98" vaporized=""/>
    <tripinfo id="veh44" depart="32.00" departLane="859732802#0_0" departPos="4.58" departSpeed="0.00" departDelay="0.32" arrival="92.00" arrivalLane="984508805_0" arrivalPos="34.81" arrivalSpeed="5.34" duration="60.00" routeLength="483.13" waitingTime="0.00" waitingCount="0" stopTime="0.00" timeLoss="14.64" rerouteNo="0" devices="tripinfo_veh44" vType="passenger" speedFactor="1.02" vaporized=""/>
    <tripinfo id="veh53" depart="39.00" departLane="-222605087#2_1" departPos="8.61" departSpeed="0.00" departDelay="0.84" arrival="103.00" arrivalLane="1250915723#0_1" arrivalPos="19.10" arrivalSpeed="4.83" duration="64.00" routeLength="324.99" waitingTime="0.00" waitingCount="0" stopTime="0.00" timeLoss="12.30" rerouteNo="0" devices="tripinfo_veh53" vType="passenger" speedFactor="0.95" vaporized=""/>
    <tripinfo id="veh85" depart="62.00" departLane="43544138#4_1" departPos="37.34" departSpeed="0.00" departDelay="0.80" arrival="109.00" arrivalLane="671642291_1" arrivalPos="61.56" arrivalSpeed="15.89" duration="47.00" routeLength="508.36" waitingTime="0.00" waitingCount="0" stopTime="0.00" timeLoss="15.93" rerouteNo="0" devices="tripinfo_veh85" vType="passenger" speedFactor="1.25" vaporized=""/>
    <tripinfo id="veh55" depart="40.00" departLane="222609004#1_1" departPos="15.51" departSpeed="0.00" departDelay="0.40" arrival="112.00" arrivalLane="-40236144#2_1" arrivalPos="51.63" arrivalSpeed="12.12" duration="72.00" routeLength="732.94" waitingTime="0.00" waitingCount="0" stopTime="0.00" timeLoss="14.77" rerouteNo="0" devices="tripinfo_veh55" vType="delivery" speedFactor="0.96" vaporized=""/>
    <tripinfo id="veh34" depart="25.00" departLane="-273835688_1" departPos="18.02" departSpeed="0.00" departDelay="0.52" arrival="113.00" arrivalLane="-1135854143_1" arrivalPos="57.62" arrivalSpeed="7.07" duration="88.00" routeLength="813.31" waitingTime="0.00" waitingCount="0" stopTime="0.00" timeLoss="19.30" rerouteNo="0" devices="tripinfo_veh34" vType="passenger" speedFactor="0.95" vaporized=""/>
    <personinfo id="ped3" depart="15.00" type="DEFAULT_PEDTYPE" speedFactor="1.11" duration="107.00" waitingTime="0.00" timeLoss="21.25" traveltime="107.00">
        <walk depart="15.00" departPos="0.00" arrival="122.00" arrivalPos="25.92" duration="107.00" routeLength="131.73" timeLoss="21.25" maxSpeed="1.54"/>
    </personinfo>
    <tripinfo id="veh24" depart="18.00" departLane="-647621858_0" departPos="75.10" departSpeed="0.00" departDelay="0.72" arrival="122.00" arrivalLane="48778449#1_1" arrivalPos="70.68" arrivalSpeed="13.41" duration="104.00" routeLength="1060.95" waitingTime="0.00" waitingCount="0" stopTime="0.00" timeLoss="18.48" rerouteNo="0" devices="tripinfo_veh24" vType="passenger" speedFactor="0.97" vaporized=""/>
    <tripinfo id="veh96" depart="70.00" departLane="-48736624#3_1" departPos="20.34" departSpeed="0.00" departDelay="0.88" arrival="125.00" arrivalLane="647689085_1" arrivalPos="124.55" arrivalSpeed="13.29" duration="55.00" routeLength="564.73" waitingTime="0.00" waitingCount="0" stopTime="0.00" timeLoss="11.83" rerouteNo="0" devices="tripinfo_veh96" vType="passenger" speedFactor="1.02" vaporized=""/>
    <tripinfo id="veh84" depart="61.00" departLane="647226814#1_1" departPos="23.75" departSpeed="0.00" departDelay="0.52" arrival="129.00" arrivalLane="-43546064#3_1" arrivalPos="334.79" arrivalSpeed="14.22" duration="68.00" routeLength="791.91" waitingTime="0.00" waitingCount="0" stopTime="0.00" timeLoss="10.06" rerouteNo="0" devices="tripinfo_veh84" vType="delivery" speedFactor="1.03" vaporized=""/>
    <tripinfo id="veh36" depart="26.00" departLane="-859734513_0" departPos="13.36" departSpeed="0.00" departDelay="0.08" arrival="133.00" arrivalLane="-1136117610_0" arrivalPos="80.17" arrivalSpeed="2.74" duration="107.00" routeLength="706.86" waitingTime="0.00" waitingCount="0" stopTime="0.00" timeLoss="21.11" rerouteNo="0" devices="tripinfo_veh36" vType="passenger" speedFactor="1.06" vaporized=""/>
    <tripinfo id="veh141" depart="102.00" departLane="-996486454#1_1" departPos="64.97" departSpeed="0.00" departDelay="0.48" arrival="135.00" arrivalLane="48778524#4_1" arrivalPos="30.32" arrivalSpeed="11.90" duration="33.00" routeLength="278.43" waitingTime="0.00" waitingCount="0" stopTime="0.00" timeLoss="9.47" rerouteNo="0" devices="tripinfo_veh141" vType="passenger" speedFactor="0.96" vaporized=""/>
    <tripinfo id="veh23" depart="17.00" departLane="43546449#1_1" departPos="26.73" departSpeed="0.00" departDelay="0.44" arrival="142.00" arrivalLane="-898519021_1" arrivalPos="62.05" arrivalSpeed="13.29" duration="125.00" routeLength="1242.23" waitingTime="5.00" waitingCount="1" stopTime="0.00" timeLoss="30.07" rerouteNo="0" devices="tripinfo_veh23" vType="passenger" speedFactor="0.99" vaporized=""/>
    <tripinfo id="veh28" depart="21.00" departLane="-43547017#1_1" departPos="11.39" departSpeed="0.00" departDelay="0.84" arrival="146.00" arrivalLane="-43544588#0_1" arrivalPos="169.75" arrivalSpeed="4.11" duration="125.00" routeLength="531.69" waitingTime="0.00" waitingCount="0" stopTime="0.00" timeLoss="10.10" rerouteNo="0" devices="tripinfo_veh28" vType="bicycle" speedFactor="0.83" vaporized=""/>
    <tripinfo id="veh109" depart="79.00" departLane="-48778525#2_1" departPos="20.92" departSpeed="0.00" departDelay="0.52" arrival="147.00" arrivalLane="-222608881#0_1" arrivalPos="169.24" arrivalSpeed="13.64" duration="68.00" routeLength="694.25" waitingTime="0.00" waitingCount="0" stopTime="0.00" timeLoss="14.73" rerouteNo="0" devices="tripinfo_veh109" vType="emergency" speedFactor="1.00" vaporized=""/>
    <tripinfo id="veh122" depart="88.00" departLane="353939570#7_1" departPos="6.78" departSpeed="0.00" departDelay="0.16" arrival="148.00" arrivalLane="222605085#2_1" arrivalPos="2.96" arrivalSpeed="8.50" duration="60.00" routeLength="691.53" waitingTime="0.00" waitingCount="0" stopTime="0.00" timeLoss="10.54" rerouteNo="0" devices="tripinfo_veh122" vType="passenger" speedFactor="1.07" vaporized=""/>
    <tripinfo id="veh92" depart="67.00" departLane="-48778527_1" departPos="61.09" departSpeed="0.00" departDelay="0.76" arrival="150.00" arrivalLane="-996486454#0_1" arrivalPos="64.31" arrivalSpeed="13.13" duration="83.00" routeLength="862.74" waitingTime="0.00" waitingCount="0" stopTime="0.00" timeLoss="15.81" rerouteNo="0" devices="tripinfo_veh92" vType="passenger" speedFactor="0.99" vaporized=""/>
    <tripinfo id="veh173" depart="125.00" departLane="984521612#0_0" departPos="9.02" departSpeed="0.00" departDelay="0.44" arrival="150.00" arrivalLane="-647762524_1" arrivalPos="48.75" arrivalSpeed="13.23" duration="25.00" routeLength="121.83" waitingTime="4.00" waitingCount="1" stopTime="0.00" timeLoss="12.72" rerouteNo="0" devices="tripinfo_veh173" vType="passenger" speedFactor="1.04" vaporized=""/>
    <tripinfo id="veh18" depart="13.00" departLane="-40299739#0_1" departPos="24.57" departSpeed="0.00" departDelay="0.04" arrival="152.00" arrivalLane="48778474#1_1" arrivalPos="171.29" arrivalSpeed="13.40" duration="139.00" routeLength="1584.21" waitingTime="0.00" waitingCount="0" stopTime="0.00" timeLoss="18.68" rerouteNo="0" devices="tripinfo_veh18" vType="passenger" speedFactor="1.03" vaporized=""/>
    <personinfo id="ped26" depart="130.00" type="DEFAULT_PEDTYPE" speedFactor="1.14" duration="28.00" waitingTime="0.00" timeLoss="3.91" traveltime="28.00">
        <walk depart="130.00" departPos="0.00" arrival="158.00" arrivalPos="12.99" duration="28.00" routeLength="38.15" timeLoss="3.91" maxSpeed="1.58"/>
    </personinfo>
    <tripinfo id="veh126" depart="91.00" departLane="43546449#2_1" departPos="3.65" departSpeed="0.00" departDelay="0.28" arrival="164.00" arrivalLane="-48778446#1_1" arrivalPos="16.75" arrivalSpeed="12.07" duration="73.00" routeLength="658.02" waitingTime="0.00" waitingCount="0" stopTime="0.00" timeLoss="16.62" rerouteNo="0" devices="tripinfo_veh126" vType="passenger" speedFactor="0.91" vaporized=""/>
    <personinfo id="ped22" depart="110.00" type="DEFAULT_PEDTYPE" speedFactor="0.99" duration="55.00" waitingTime="0.00" timeLoss="5.20" traveltime="55.00">
        <walk depart="110.00" departPos="0.00" arrival="165.00" arrivalPos="32.20" duration="55.00" routeLength="68.72" timeLoss="5.20" maxSpeed="1.38"/>
    </personinfo>
    <tripinfo id="veh125" depart="90.00" departLane="43547017#4_1" departPos="5.91" departSpeed="0.00" departDelay="0.00" arrival="169.00" arrivalLane="48778524#3_1" arrivalPos="28.26" arrivalSpeed="13.50" duration="79.00" routeLength="873.18" waitingTime="0.00" waitingCount="0" stopTime="0.00" timeLoss="13.64" rerouteNo="0" devices="tripinfo_veh125" vType="motorcycle" speedFactor="1.01" vaporized=""/>
    <tripinfo id="veh30" depart="22.00" departLane="-43546570#0_1" departPos="15.82" departSpeed="0.00" departDelay="0.40" arrival="170.00" arrivalLane="-48778500#1_1" arrivalPos="81.60" arrivalSpeed="14.29" duration="148.00" routeLength="1663.49" waitingTime="0.00" waitingCount="0" stopTime="0.00" timeLoss="29.23" rerouteNo="0" devices="tripinfo_veh30" vType="passenger" speedFactor="1.07" vaporized=""/>
    <tripinfo id="veh132" depart="96.00" departLane="984521612#0_0" departPos="3.44" departSpeed="0.00" departDelay="0.96" arrival="171.00" arrivalLane="273836978#1_1" arrivalPos="68.56" arrivalSpeed="13.01" duration="75.00" routeLength="674.26" waitingTime="0.00" waitingCount="0" stopTime="0.00" timeLoss="17.37" rerouteNo="0" devices="tripinfo_veh132" vType="passenger" speedFactor="0.97" vaporized=""/>
    <tripinfo id="veh110" depart="80.00" departLane="-647226814#1_1" departPos="0.36" departSpeed="0.00" departDelay="0.80" arrival="174.00" arrivalLane="-383582512#0_0" arrivalPos="35.67" arrivalSpeed="4.77" duration="94.00" routeLength="956.04" waitingTime="0.00" waitingCount="0" stopTime="0.00" timeLoss="15.37" rerouteNo="0" devices="tripinfo_veh110" vType="passenger" speedFactor="1.02" vaporized=""/>
    <tripinfo id="veh191" depart="138.00" departLane="-1136289987_1" departPos="65.57" departSpeed="0.00" departDelay="0.48" arrival="175.00" arrivalLane="48778517#1_1" arrivalPos="40.09" arrivalSpeed="7.21" duration="37.00" routeLength="323.49" waitingTime="0.00" waitingCount="0" stopTime="0.00" timeLoss="9.46" rerouteNo="0" devices="tripinfo_veh191" vType="motorcycle" speedFactor="1.14" vaporized=""/>
    <tripinfo id="veh39" depart="29.00" departLane="1136301813_1" departPos="1.86" departSpeed="0.00" departDelay="0.92" arrival="176.00" arrivalLane="40236228#1_1" arrivalPos="51.45" arrivalSpeed="14.00" duration="147.00" routeLength="1529.33" waitingTime="9.00" waitingCount="1" stopTime="0.00" timeLoss="37.72" rerouteNo="0" devices="tripinfo_veh39" vType="passenger" speedFactor="1.05" vaporized=""/>
    <tripinfo id="veh83" depart="60.00" departLane="-258551297#1_0" departPos="23.29" departSpeed="0.00" departDelay="0.24" arrival="177.00" arrivalLane="48736607#1_1" arrivalPos="193.73" arrivalSpeed="13.51" duration="117.00" routeLength="971.67" waitingTime="2.00" waitingCount="1" stopTime="0.00" timeLoss="26.66" rerouteNo="0" devices="tripinfo_veh83" vType="passenger" speedFactor="0.98" vaporized=""/>
    <tripinfo id="veh113" depart="82.00" departLane="-43544197#8_1" departPos="12.43" departSpeed="0.00" departDelay="0.64" arrival="179.00" arrivalLane="-43546506#1_1" arrivalPos="102.40" arrivalSpeed="15.37" duration="97.00" routeLength="1215.23" waitingTime="0.00" waitingCount="0" stopTime="0.00" timeLoss="16.28" rerouteNo="0" devices="tripinfo_veh113" vType="passenger" speedFactor="1.11" vaporized=""/>
    <personinfo id="ped0" depart="0.00" type="DEFAULT_PEDTYPE" speedFactor="1.03" duration="180.00" waitingTime="0.00" timeLoss="17.52" traveltime="180.00">
        <walk depart="0.00" departPos="0.00" arrival="180.00" arrivalPos="12.23" duration="180.00" routeLength="232.51" timeLoss="17.52" maxSpeed="1.43"/>
    </personinfo>
    <tripinfo id="veh22" depart="16.00" departLane="43546785_1" departPos="79.56" departSpeed="0.00" departDelay="0.16" arrival="185.00" arrivalLane="-48778519_1" arrivalPos="91.88" arrivalSpeed="14.55" duration="169.00" routeLength="2088.15" waitingTime="0.00" waitingCount="0" stopTime="0.00" timeLoss="30.76" rerouteNo="0" devices="tripinfo_veh22" vType="passenger" speedFactor="1.12" vaporized=""/>
    <tripinfo id="veh86" depart="62.00" departLane="-492965073#9_1" departPos="50.77" departSpeed="0.00" departDelay="0.08" arrival="187.00" arrivalLane="-48736666#0_1" arrivalPos="53.08" arrivalSpeed="11.58" duration="125.00" routeLength="1323.98" waitingTime="0.00" waitingCount="0" stopTime="0.00" timeLoss="12.24" rerouteNo="0" devices="tripinfo_veh86" vType="passenger" speedFactor="0.87" vaporized=""/>
    <personinfo id="ped20" depart="100.00" type="DEFAULT_PEDTYPE" speedFactor="1.20" duration="88.00" waitingTime="0.00" timeLoss="22.24" traveltime="88.00">
        <walk depart="100.00" departPos="0.00" arrival="188.00" arrivalPos="57.02" duration="88.00" routeLength="109.78" timeLoss="22.24" maxSpeed="1.67"/>
    </personinfo>
    <tripinfo id="veh4" depart="3.00" departLane="43546688#2_1" departPos="10.33" departSpeed="0.00" departDelay="0.12" arrival="190.00" arrivalLane="48736665_1" arrivalPos="14.66" arrivalSpeed="8.92" duration="187.00" routeLength="1950.61" waitingTime="20.00" waitingCount="1" stopTime="0.00" timeLoss="45.20" rerouteNo="0" devices="tripinfo_veh4" vType="passenger" speedFactor="1.02" vaporized=""/>
    <tripinfo id="veh144" depart="104.00" departLane="-984521612#1_0" departPos="5.49" departSpeed="0.00" departDelay="0.32" arrival="190.00" arrivalLane="-48736639#0_1" arrivalPos="107.97" arrivalSpeed="12.24" duration="86.00" routeLength="688.71" waitingTime="0.00" waitingCount="0" stopTime="0.00" timeLoss="18.81" rerouteNo="0" devices="tripinfo_veh144" vType="motorcycle" speedFactor="0.98" vaporized=""/>
    <tripinfo id="veh146" depart="106.00" departLane="43544184#0_1" departPos="16.87" departSpeed="0.00" departDelay="0.88" arrival="192.00" arrivalLane="-43544179#8_1" arrivalPos="43.05" arrivalSpeed="13.81" duration="86.00" routeLength="1071.17" waitingTime="0.00" waitingCount="0" stopTime="0.00" timeLoss="13.46" rerouteNo="0" devices="tripinfo_veh146" vType="motorcycle" speedFactor="1.08" vaporized=""/>
    <tripinfo id="veh180" depart="131.00" departLane="43546688#0_1" departPos="16.21" departSpeed="0.00" departDelay="1.40" arrival="192.00" arrivalLane="48778476_1" arrivalPos="90.71" arrivalSpeed="13.73" duration="61.00" routeLength="586.41" waitingTime="3.00" waitingCount="1" stopTime="0.00" timeLoss="16.00" rerouteNo="0" devices="tripinfo_veh180" vType="motorcycle" speedFactor="1.00" vaporized=""/>
    <tripinfo id="veh164" depart="119.00" departLane="176279225#1_2" departPos="4.46" departSpeed="0.00" departDelay="0.92" arrival="197.00" arrivalLane="-48736610#0_1" arrivalPos="66.60" arrivalSpeed="14.23" duration="78.00" routeLength="936.87" waitingTime="0.00" waitingCount="0" stopTime="0.00" timeLoss="10.89" rerouteNo="0" devices="tripinfo_veh164" vType="passenger" speedFactor="1.03" vaporized=""/>
    <tripinfo id="veh76" depart="55.00" departLane="258551297#0_0" departPos="0.72" departSpeed="0.00" departDelay="0.28" arrival="198.00" arrivalLane="-48736611#0_1" arrivalPos="94.02" arrivalSpeed="7.80" duration="143.00" routeLength="1023.53" waitingTime="19.00" waitingCount="2" stopTime="0.00" timeLoss="41.58" rerouteNo="0" devices="tripinfo_veh76" vType="emergency" speedFactor="1.00" vaporized=""/>
    <tripinfo id="veh62" depart="45.00" departLane="945793490#2_1" departPos="2.18" departSpeed="0.00" departDelay="0.36" arrival="204.00" arrivalLane="40266909#0_1" arrivalPos="56.72" arrivalSpeed="12.86" duration="159.00" routeLength="1597.96" waitingTime="0.00" waitingCount="0" stopTime="0.00" timeLoss="25.85" rerouteNo="0" devices="tripinfo_veh62" vType="passenger" speedFactor="1.02" vaporized=""/>
    <tripinfo id="veh78" depart="57.00" departLane="48778498#1_1" departPos="18.48" departSpeed="0.00" departDelay="0.84" arrival="204.00" arrivalLane="492965073#8_2" arrivalPos="91.29" arrivalSpeed="14.43" duration="147.00" routeLength="1763.31" waitingTime="0.00" waitingCount="0" stopTime="0.00" timeLoss="23.27" rerouteNo="0" devices="tripinfo_veh78" vType="passenger" speedFactor="1.06" vaporized=""/>
    <tripinfo id="veh135" depart="98.00" departLane="-994065252_0" departPos="145.95" departSpeed="0.00" departDelay="0.80" arrival="207.00" arrivalLane="1205541343#1_1" arrivalPos="33.13" arrivalSpeed="4.41" duration="109.00" routeLength="747.45" waitingTime="0.00" waitingCount="0" stopTime="0.00" timeLoss="42.31" rerouteNo="0" devices="tripinfo_veh135" vType="passenger" speedFactor="0.98" vaporized=""/>
    <tripinfo id="veh117" depart="85.00" departLane="43544001#1_1" departPos="14.69" departSpeed="0.00" departDelay="0.76" arrival="211.00" arrivalLane="-48778505#2_1" arrivalPos="58.27" arrivalSpeed="11.46" duration="126.00" routeLength="1300.52" waitingTime="0.00" waitingCount="0" stopTime="0.00" timeLoss="18.08" rerouteNo="0" devices="tripinfo_veh117" vType="passenger" speedFactor="0.89" vaporized=""/>
    <tripinfo id="veh223" depart="161.00" departLane="383582506_0" departPos="14.54" departSpeed="0.00" departDelay="0.44" arrival="214.00" arrivalLane="-48778520_1" arrivalPos="53.92" arrivalSpeed="12.54" duration="53.00" routeLength="408.72" waitingTime="0.00" waitingCount="0" stopTime="0.00" timeLoss="11.50" rerouteNo="0" devices="tripinfo_veh223" vType="passenger" speedFactor="0.95" vaporized=""/>
    <tripinfo id="veh37" depart="27.00" departLane="-43546064#3_1" departPos="327.50" departSpeed="0.00" departDelay="0.36" arrival="216.00" arrivalLane="48778478#2_1" arrivalPos="30.02" arrivalSpeed="14.68" duration="189.00" routeLength="2139.15" waitingTime="16.00" waitingCount="1" stopTime="0.00" timeLoss="52.40" rerouteNo="0" devices="tripinfo_veh37" vType="passenger" speedFactor="1.17" vaporized=""/>
    <tripinfo id="veh60" depart="44.00" departLane="40266619_1" departPos="24.87" departSpeed="0.00" departDelay="0.80" arrival="217.00" arrivalLane="-1136119743#0_1" arrivalPos="24.46" arrivalSpeed="7.90" duration="173.00" routeLength="1553.93" waitingTime="11.00" waitingCount="1" stopTime="0.00" timeLoss="54.65" rerouteNo="0" devices="tripinfo_veh60" vType="passenger" speedFactor="1.09" vaporized=""/>
    <tripinfo id="veh229" depart="165.00" departLane="-258551279_0" departPos="152.80" departSpeed="0.00" departDelay="0.12" arrival="218.00" arrivalLane="43544184#0_1" arrivalPos="27.15" arrivalSpeed="10.43" duration="53.00" routeLength="560.85" waitingTime="0.00" waitingCount="0" stopTime="0.00" timeLoss="9.69" rerouteNo="0" devices="tripinfo_veh229" vType="passenger" speedFactor="1.03" vaporized=""/>
    <personinfo id="ped16" depart="80.00" type="DEFAULT_PEDTYPE" speedFactor="1.08" duration="140.00" waitingTime="0.00" timeLoss="30.77" traveltime="140.00">
        <walk depart="80.00" departPos="0.00" arrival="220.00" arrivalPos="77.11" duration="140.00" routeLength="164.49" timeLoss="30.77" maxSpeed="1.51"/>
    </personinfo>
    <tripinfo id="veh10" depart="8.00" departLane="43544138#0_1" departPos="21.62" departSpeed="0.00" departDelay="0.80" arrival="221.00" arrivalLane="48778481#9_1" arrivalPos="307.74" arrivalSpeed="13.18" duration="213.00" routeLength="2626.57" waitingTime="0.00" waitingCount="0" stopTime="0.00" timeLoss="27.07" rerouteNo="0" devices="tripinfo_veh10" vType="passenger" speedFactor="1.04" vaporized=""/>
    <tripinfo id="veh238" depart="172.00" departLane="43547579#3_1" departPos="16.05" departSpeed="0.00" departDelay="0.64" arrival="223.00" arrivalLane="43546343#1_1" arrivalPos="44.30" arrivalSpeed="12.40" duration="51.00" routeLength="581.81" waitingTime="0.00" waitingCount="0" stopTime="0.00" timeLoss="7.35" rerouteNo="0" devices="tripinfo_veh238" vType="passenger" speedFactor="0.98" vaporized=""/>
    <tripinfo id="veh7" depart="6.00" departLane="859728206_0" departPos="11.33" departSpeed="0.00" departDelay="0.96" arrival="231.00" arrivalLane="-143207982#7_1" arrivalPos="28.87" arrivalSpeed="13.98" duration="225.00" routeLength="2676.19" waitingTime="0.00" waitingCount="0" stopTime="0.00" timeLoss="35.08" rerouteNo="0" devices="tripinfo_veh7" vType="passenger" speedFactor="1.12" vaporized=""/>
    <tripinfo id="veh153" depart="111.00" departLane="48778499#0_1" departPos="36.56" departSpeed="0.00" departDelay="0.84" arrival="232.00" arrivalLane="48797765#0_1" arrivalPos="17.85" arrivalSpeed="11.27" duration="121.00" routeLength="1459.23" waitingTime="0.00" waitingCount="0" stopTime="0.00" timeLoss="28.00" rerouteNo="0" devices="tripinfo_veh153" vType="passenger" speedFactor="1.18" vaporized=""/>
    <tripinfo id="veh254" depart="183.00" departLane="647226814#0_1" departPos="25.34" departSpeed="0.00" departDelay="0.12" arrival="232.00" arrivalLane="43544197#8_1" arrivalPos="132.38" arrivalSpeed="15.15" duration="49.00" routeLength="557.15" waitingTime="0.00" waitingCount="0" stopTime="0.00" timeLoss="12.31" rerouteNo="0" devices="tripinfo_veh254" vType="passenger" speedFactor="1.13" vaporized=""/>
    <tripinfo id="veh3" depart="3.00" departLane="-647226814#0_1" departPos="29.82" departSpeed="0.00" departDelay="0.84" arrival="233.00" arrivalLane="40236093_1" arrivalPos="79.24" arrivalSpeed="12.90" duration="230.00" routeLength="2419.48" waitingTime="0.00" waitingCount="0" stopTime="0.00" timeLoss="36.40" rerouteNo="0" devices="tripinfo_veh3" vType="passenger" speedFactor="0.94" vaporized=""/>
    <tripinfo id="veh41" depart="30.00" departLane="48736648#0_0" departPos="0.18" departSpeed="0.00" departDelay="0.48" arrival="233.00" arrivalLane="-1250915720#5_1" arrivalPos="1.24" arrivalSpeed="5.70" duration="203.00" routeLength="1078.86" waitingTime="4.00" waitingCount="1" stopTime="0.00" timeLoss="26.31" rerouteNo="0" devices="tripinfo_veh41" vType="bicycle" speedFactor="1.10" vaporized=""/>
    <tripinfo id="veh118" depart="85.00" departLane="48736622#0_1" departPos="0.16" departSpeed="0.00" departDelay="0.04" arrival="234.00" arrivalLane="-40334244#3_1" arrivalPos="176.10" arrivalSpeed="13.00" duration="149.00" routeLength="1349.37" waitingTime="26.00" waitingCount="2" stopTime="0.00" timeLoss="47.04" rerouteNo="0" devices="tripinfo_veh118" vType="passenger" speedFactor="0.97" vaporized=""/>
    <tripinfo id="veh19" depart="14.00" departLane="-994065253_0" departPos="19.23" departSpeed="0.00" departDelay="0.32" arrival="235.00" arrivalLane="-40304754#2_1" arrivalPos="101.06" arrivalSpeed="14.83" duration="221.00" routeLength="2182.20" waitingTime="3.00" waitingCount="1" stopTime="0.00" timeLoss="70.65" rerouteNo="0" devices="tripinfo_veh19" vType="passenger" speedFactor="1.13" vaporized=""/>
    <tripinfo id="veh115" depart="83.00" departLane="40265780#0_1" departPos="86.56" departSpeed="0.00" departDelay="0.20" arrival="235.00" arrivalLane="-43546648#1_1" arrivalPos="105.30" arrivalSpeed="14.07" duration="152.00" routeLength="1571.75" waitingTime="15.00" waitingCount="1" stopTime="0.00" timeLoss="41.86" rerouteNo="0" devices="tripinfo_veh115" vType="delivery" speedFactor="1.06" vaporized=""/>
    <tripinfo id="veh176" depart="127.00" departLane="273836978#1_1" departPos="0.72" departSpeed="0.00" departDelay="0.28" arrival="235.00" arrivalLane="-48778461#0_1" arrivalPos="53.57" arrivalSpeed="13.25" duration="108.00" routeLength="927.32" waitingTime="3.00" waitingCount="1" stopTime="0.00" timeLoss="31.94" rerouteNo="0" devices="tripinfo_veh176" vType="passenger" speedFactor="0.96" vaporized=""/>
    <tripinfo id="veh40" depart="29.00" departLane="-647610982#3_1" departPos="36.14" departSpeed="0.00" departDelay="0.20" arrival="238.00" arrivalLane="43544179#11_1" arrivalPos="85.20" arrivalSpeed="13.46" duration="209.00" routeLength="2547.91" waitingTime="0.00" waitingCount="0" stopTime="0.00" timeLoss="24.56" rerouteNo="0" devices="tripinfo_veh40" vType="motorcycle" speedFactor="1.00" vaporized=""/>
    <tripinfo id="veh70" depart="51.00" departLane="-945793486#0_0" departPos="1.37" departSpeed="0.00" departDelay="0.60" arrival="239.00" arrivalLane="48736611#0_1" arrivalPos="94.77" arrivalSpeed="7.56" duration="188.00" routeLength="1637.45" waitingTime="27.00" waitingCount="2" stopTime="0.00" timeLoss="64.60" rerouteNo="0" devices="tripinfo_veh70" vType="passenger" speedFactor="1.05" vaporized=""/>
    <tripinfo id="veh81" depart="59.00" departLane="-40314583#4_1" departPos="14.80" departSpeed="0.00" departDelay="0.68" arrival="242.00" arrivalLane="48778441#0_1" arrivalPos="38.64" arrivalSpeed="12.91" duration="183.00" routeLength="1756.62" waitingTime="8.00" waitingCount="1" stopTime="0.00" timeLoss="60.78" rerouteNo="0" devices="tripinfo_veh81" vType="passenger" speedFactor="1.08" vaporized=""/>
    <tripinfo id="veh129" depart="93.00" departLane="-48778496_1" departPos="30.78" departSpeed="0.00" departDelay="0.12" arrival="242.00" arrivalLane="-40304754#2_1" arrivalPos="101.06" arrivalSpeed="10.23" duration="149.00" routeLength="1385.50" waitingTime="0.00" waitingCount="0" stopTime="0.00" timeLoss="16.71" rerouteNo="0" devices="tripinfo_veh129" vType="passenger" speedFactor="0.80" vaporized=""/>
    <tripinfo id="veh2" depart="2.00" departLane="-92198453#1_1" departPos="9.45" departSpeed="0.00" departDelay="0.56" arrival="243.00" arrivalLane="48778502#1_1" arrivalPos="193.23" arrivalSpeed="14.88" duration="241.00" routeLength="2795.78" waitingTime="24.00" waitingCount="1" stopTime="0.00" timeLoss="51.25" rerouteNo="0" devices="tripinfo_veh2" vType="passenger" speedFactor="1.08" vaporized=""/>
    <tripinfo id="veh93" depart="67.00" departLane="48778461#0_1" departPos="22.33" departSpeed="0.00" departDelay="0.04" arrival="243.00" arrivalLane="898519021_1" arrivalPos="62.04" arrivalSpeed="12.55" duration="176.00" routeLength="1193.15" waitingTime="45.00" waitingCount="5" stopTime="0.00" timeLoss="81.74" rerouteNo="0" devices="tripinfo_veh93" vType="motorcycle" speedFactor="0.98" vaporized=""/>
    <tripinfo id="veh82" depart="60.00" departLane="43546449#1_1" departPos="26.32" departSpeed="0.00" departDelay="0.96" arrival="245.00" arrivalLane="945793485#0_1" arrivalPos="25.00" arrivalSpeed="11.28" duration="185.00" routeLength="1597.23" waitingTime="39.00" waitingCount="1" stopTime="0.00" timeLoss="70.06" rerouteNo="0" devices="tripinfo_veh82" vType="passenger" speedFactor="1.03" vaporized=""/>
    <tripinfo id="veh161" depart="116.00" departLane="-43544138#2_1" departPos="0.05" departSpeed="0.00" departDelay="0.08" arrival="249.00" arrivalLane="-43547256#0_1" arrivalPos="394.57" arrivalSpeed="14.43" duration="133.00" routeLength="1682.57" waitingTime="0.00" waitingCount="0" stopTime="0.00" timeLoss="14.52" rerouteNo="0" devices="tripinfo_veh161" vType="passenger" speedFactor="1.04" vaporized=""/>