<?xml version="1.0" encoding="UTF-8"?>

<!-- generated on 2025-06-10 22:40:23 by Eclipse SUMO sumo Version 1.22.0
<sumoConfiguration xmlns:xsi="http://www.w3.org/2001/XMLSchema-instance" xsi:noNamespaceSchemaLocation="http://sumo.dlr.de/xsd/sumoConfiguration.xsd">

    <input>
        <net-file value="osm.net.xml"/>
        <route-files value="full.rou.xml, ped.rou.xml, truck.rou.xml"/>
        <additional-files value="osm.poly.xml, vtypes.xml"/>
    </input>

    <output>
        <summary-output value="summary.xml"/>
        <tripinfo-output value="E:\licenta\oras-mediu\2025-06-05-11-45-23\baseline_outputs\tripinfo_baseline_ep32.xml"/>
    </output>

    <processing>
        <ignore-route-errors value="true"/>
        <tls.actuated.jam-threshold value="30"/>
    </processing>

    <routing>
        <device.rerouting.adaptation-steps value="18"/>
        <device.rerouting.adaptation-interval value="10"/>
    </routing>

    <report>
        <verbose value="true"/>
        <duration-log.statistics value="true"/>
        <no-step-log value="true"/>
    </report>

    <traci_server>
        <remote-port value="51166"/>
    </traci_server>

    <gui_only>
        <gui-settings-file value="osm.view.xml"/>
    </gui_only>

</sumoConfiguration>
-->

<tripinfos xmlns:xsi="http://www.w3.org/2001/XMLSchema-instance" xsi:noNamespaceSchemaLocation="http://sumo.dlr.de/xsd/tripinfo_file.xsd">
    <tripinfo id="veh16" depart="9.00" departLane="-176279225#3_2" departPos="12.27" departSpeed="0.00" departDelay="0.04" arrival="58.00" arrivalLane="-48736664#0_1" arrivalPos="73.46" arrivalSpeed="12.32" duration="49.00" routeLength="464.32" waitingTime="0.00" waitingCount="0" stopTime="0.00" timeLoss="11.61" rerouteNo="0" devices="tripinfo_veh16" vType="delivery" speedFactor="0.97" vaporized=""/>
    <tripinfo id="veh98" depart="55.00" departLane="43546064#1_1" departPos="41.10" departSpeed="0.00" departDelay="0.12" arrival="63.00" arrivalLane="43546064#1_1" arrivalPos="98.06" arrivalSpeed="13.60" duration="8.00" routeLength="56.96" waitingTime="0.00" waitingCount="0" stopTime="0.00" timeLoss="3.12" rerouteNo="0" devices="tripinfo_veh98" vType="passenger" speedFactor="0.99" vaporized=""/>
    <tripinfo id="veh38" depart="22.00" departLane="-E34_2" departPos="69.28" departSpeed="0.00" departDelay="0.72" arrival="74.00" arrivalLane="-48736620#3_2" arrivalPos="26.74" arrivalSpeed="13.76" duration="52.00" routeLength="622.88" waitingTime="0.00" waitingCount="0" stopTime="0.00" timeLoss="7.74" rerouteNo="0" devices="tripinfo_veh38" vType="passenger" speedFactor="1.04" vaporized=""/>
    <tripinfo id="veh34" depart="20.00" departLane="-1136279388_0" departPos="2.68" departSpeed="0.00" departDelay="0.96" arrival="82.00" arrivalLane="-48736607#0_1" arrivalPos="36.67" arrivalSpeed="15.06" duration="62.00" routeLength="674.02" waitingTime="0.00" waitingCount="0" stopTime="0.00" timeLoss="12.13" rerouteNo="0" devices="tripinfo_veh34" vType="passenger" speedFactor="1.10" vaporized=""/>
    <tripinfo id="veh50" depart="28.00" departLane="43546039#0_1" departPos="111.88" departSpeed="0.00" departDelay="0.00" arrival="92.00" arrivalLane="43546935#3_1" arrivalPos="13.61" arrivalSpeed="13.27" duration="64.00" routeLength="699.45" waitingTime="0.00" waitingCount="0" stopTime="0.00" timeLoss="13.60" rerouteNo="0" devices="tripinfo_veh50" vType="passenger" speedFactor="1.02" vaporized=""/>
    <tripinfo id="veh42" depart="24.00" departLane="647347140#2_1" departPos="7.24" departSpeed="0.00" departDelay="0.48" arrival="118.00" arrivalLane="-859732803#0_0" arrivalPos="20.07" arrivalSpeed="4.29" duration="94.00" routeLength="898.44" waitingTime="0.00" waitingCount="0" stopTime="0.00" timeLoss="12.68" rerouteNo="0" devices="tripinfo_veh42" vType="passenger" speedFactor="0.88" vaporized=""/>
    <tripinfo id="veh11" depart="7.00" departLane="43546105#2_1" departPos="2.88" departSpeed="0.00" departDelay="0.84" arrival="124.00" arrivalLane="671642291_1" arrivalPos="61.56" arrivalSpeed="12.67" duration="117.00" routeLength="1252.70" waitingTime="0.00" waitingCount="0" stopTime="0.00" timeLoss="15.66" rerouteNo="0" devices="tripinfo_veh11" vType="passenger" speedFactor="0.92" vaporized=""/>
    <tripinfo id="veh36" depart="21.00" departLane="48778464#3_1" departPos="0.12" departSpeed="0.00" departDelay="0.84" arrival="125.00" arrivalLane="-48778446#0_1" arrivalPos="56.81" arrivalSpeed="7.40" duration="104.00" routeLength="807.36" waitingTime="19.00" waitingCount="1" stopTime="0.00" timeLoss="37.24" rerouteNo="0" devices="tripinfo_veh36" vType="passenger" speedFactor="1.03" vaporized=""/>
    <tripinfo id="veh8" depart="5.00" departLane="48788485#9_2" departPos="174.14" departSpeed="0.00" departDelay="0.52" arrival="129.00" arrivalLane="353939570#7_2" arrivalPos="11.98" arrivalSpeed="9.77" duration="124.00" routeLength="1191.11" waitingTime="11.00" waitingCount="2" stopTime="0.00" timeLoss="35.96" rerouteNo="0" devices="tripinfo_veh8" vType="passenger" speedFactor="1.02" vaporized=""/>
    <tripinfo id="veh164" depart="92.00" departLane="48778494#0_1" departPos="42.96" departSpeed="0.00" departDelay="0.16" arrival="129.00" arrivalLane="945794109_1" arrivalPos="21.82" arrivalSpeed="7.36" duration="37.00" routeLength="344.35" waitingTime="0.00" waitingCount="0" stopTime="0.00" timeLoss="7.58" rerouteNo="0" devices="tripinfo_veh164" vType="delivery" speedFactor="0.94" vaporized=""/>
    <tripinfo id="veh0" depart="0.00" departLane="E14_2" departPos="211.42" departSpeed="0.00" departDelay="0.00" arrival="130.00" arrivalLane="-40330571#1_1" arrivalPos="2.27" arrivalSpeed="12.15" duration="130.00" routeLength="1387.61" waitingTime="0.00" waitingCount="0" stopTime="0.00" timeLoss="21.99" rerouteNo="0" devices="tripinfo_veh0" vType="motorcycle" speedFactor="0.98" vaporized=""/>
    <tripinfo id="veh85" depart="48.00" departLane="-48778493#1_1" departPos="7.24" departSpeed="0.00" departDelay="0.40" arrival="132.00" arrivalLane="40265775#0_1" arrivalPos="76.56" arrivalSpeed="13.41" duration="84.00" routeLength="834.86" waitingTime="6.00" waitingCount="1" stopTime="0.00" timeLoss="23.06" rerouteNo="0" devices="tripinfo_veh85" vType="passenger" speedFactor="1.03" vaporized=""/>
    <tripinfo id="veh103" depart="58.00" departLane="-671642324_1" departPos="37.81" departSpeed="0.00" departDelay="0.32" arrival="132.00" arrivalLane="-996984133_1" arrivalPos="75.36" arrivalSpeed="7.17" duration="74.00" routeLength="660.85" waitingTime="0.00" waitingCount="0" stopTime="0.00" timeLoss="12.50" rerouteNo="0" devices="tripinfo_veh103" vType="passenger" speedFactor="0.89" vaporized=""/>
    <tripinfo id="veh132" depart="74.00" departLane="174818022#2_0" departPos="80.58" departSpeed="0.00" departDelay="0.08" arrival="133.00" arrivalLane="40299241#3_1" arrivalPos="62.98" arrivalSpeed="12.49" duration="59.00" routeLength="528.76" waitingTime="0.00" waitingCount="0" stopTime="0.00" timeLoss="9.61" rerouteNo="0" devices="tripinfo_veh132" vType="passenger" speedFactor="0.91" vaporized=""/>
    <tripinfo id="veh91" depart="51.00" departLane="222609002#4_1" departPos="29.83" departSpeed="0.00" departDelay="0.04" arrival="134.00" arrivalLane="-945794110_1" arrivalPos="52.39" arrivalSpeed="7.22" duration="83.00" routeLength="818.19" waitingTime="0.00" waitingCount="0" stopTime="0.00" timeLoss="18.78" rerouteNo="0" devices="tripinfo_veh91" vType="delivery" speedFactor="1.01" vaporized=""/>
    <tripinfo id="veh81" depart="46.00" departLane="859735387#0_0" departPos="4.90" departSpeed="0.00" departDelay="0.64" arrival="135.00" arrivalLane="-43544179#12_1" arrivalPos="77.06" arrivalSpeed="12.37" duration="89.00" routeLength="788.76" waitingTime="0.00" waitingCount="0" stopTime="0.00" timeLoss="12.48" rerouteNo="0" devices="tripinfo_veh81" vType="delivery" speedFactor="0.98" vaporized=""/>
    <tripinfo id="veh43" depart="25.00" departLane="-40299241#0_1" departPos="37.94" departSpeed="0.00" departDelay="0.92" arrival="137.00" arrivalLane="984508804_0" arrivalPos="26.89" arrivalSpeed="5.38" duration="112.00" routeLength="1284.00" waitingTime="0.00" waitingCount="0" stopTime="0.00" timeLoss="19.05" rerouteNo="0" devices="tripinfo_veh43" vType="passenger" speedFactor="1.06" vaporized=""/>
    <tripinfo id="veh1" depart="1.00" departLane="250295380#1_1" departPos="4.22" departSpeed="0.00" departDelay="0.44" arrival="141.00" arrivalLane="48778480#4_1" arrivalPos="14.79" arrivalSpeed="14.33" duration="140.00" routeLength="1201.60" waitingTime="40.00" waitingCount="1" stopTime="0.00" timeLoss="57.34" rerouteNo="0" devices="tripinfo_veh1" vType="passenger" speedFactor="1.08" vaporized=""/>
    <tripinfo id="veh7" depart="4.00" departLane="43546793_1" departPos="47.54" departSpeed="0.00" departDelay="0.08" arrival="144.00" arrivalLane="43573547#8_1" arrivalPos="83.79" arrivalSpeed="12.41" duration="140.00" routeLength="1409.04" waitingTime="0.00" waitingCount="0" stopTime="0.00" timeLoss="25.61" rerouteNo="0" devices="tripinfo_veh7" vType="passenger" speedFactor="0.94" vaporized=""/>
    <tripinfo id="veh179" depart="101.00" departLane="1136284448_1" departPos="22.58" departSpeed="0.00" departDelay="0.76" arrival="144.00" arrivalLane="-43573573#1_1" arrivalPos="2.53" arrivalSpeed="7.97" duration="43.00" routeLength="318.10" waitingTime="2.00" waitingCount="1" stopTime="0.00" timeLoss="17.16" rerouteNo="0" devices="tripinfo_veh179" vType="passenger" speedFactor="1.04" vaporized=""/>
    <tripinfo id="veh62" depart="35.00" departLane="647998063#0_1" departPos="283.43" departSpeed="0.00" departDelay="0.28" arrival="145.00" arrivalLane="-143207979#0_1" arrivalPos="24.79" arrivalSpeed="13.82" duration="110.00" routeLength="1118.15" waitingTime="2.00" waitingCount="1" stopTime="0.00" timeLoss="28.26" rerouteNo="0" devices="tripinfo_veh62" vType="passenger" speedFactor="1.03" vaporized=""/>
    <tripinfo id="veh146" depart="82.00" departLane="-1136279388_0" departPos="10.37" departSpeed="0.00" departDelay="0.24" arrival="149.00" arrivalLane="143207982#8_1" arrivalPos="38.81" arrivalSpeed="11.43" duration="67.00" routeLength="666.23" waitingTime="0.00" waitingCount="0" stopTime="0.00" timeLoss="15.86" rerouteNo="0" devices="tripinfo_veh146" vType="motorcycle" speedFactor="1.02" vaporized=""/>
    <tripinfo id="veh31" depart="18.00" departLane="-48778427_1" departPos="363.91" departSpeed="0.00" departDelay="0.64" arrival="159.00" arrivalLane="E41_1" arrivalPos="211.17" arrivalSpeed="12.99" duration="141.00" routeLength="1283.49" waitingTime="29.00" waitingCount="1" stopTime="0.00" timeLoss="43.39" rerouteNo="0" devices="tripinfo_veh31" vType="passenger" speedFactor="0.97" vaporized=""/>
    <tripinfo id="veh222" depart="125.00" departLane="-945793490#2_1" departPos="11.74" departSpeed="0.00" departDelay="0.68" arrival="173.00" arrivalLane="1250915721#2_1" arrivalPos="24.05" arrivalSpeed="4.11" duration="48.00" routeLength="211.91" waitingTime="0.00" waitingCount="0" stopTime="0.00" timeLoss="8.02" rerouteNo="0" devices="tripinfo_veh222" vType="passenger" speedFactor="0.95" vaporized=""/>
    <tripinfo id="veh18" depart="11.00" departLane="43546460#4_1" departPos="59.15" departSpeed="0.00" departDelay="0.92" arrival="175.00" arrivalLane="-67712683_1" arrivalPos="77.22" arrivalSpeed="13.88" duration="164.00" routeLength="2008.84" waitingTime="0.00" waitingCount="0" stopTime="0.00" timeLoss="19.03" rerouteNo="0" devices="tripinfo_veh18" vType="passenger" speedFactor="1.02" vaporized=""/>
    <tripinfo id="veh40" depart="23.00" departLane="43544001#5_1" departPos="16.34" departSpeed="0.00" departDelay="0.60" arrival="177.00" arrivalLane="40304754#5_1" arrivalPos="153.80" arrivalSpeed="4.65" duration="154.00" routeLength="1843.07" waitingTime="4.00" waitingCount="1" stopTime="0.00" timeLoss="30.46" rerouteNo="0" devices="tripinfo_veh40" vType="passenger" speedFactor="1.09" vaporized=""/>
    <tripinfo id="veh184" depart="104.00" departLane="250295382_1" departPos="66.37" departSpeed="0.00" departDelay="0.96" arrival="177.00" arrivalLane="647741479_1" arrivalPos="102.89" arrivalSpeed="12.34" duration="73.00" routeLength="768.01" waitingTime="0.00" waitingCount="0" stopTime="0.00" timeLoss="12.64" rerouteNo="0" devices="tripinfo_veh184" vType="passenger" speedFactor="0.97" vaporized=""/>
    <tripinfo id="veh63" depart="36.00" departLane="-48778525#2_1" departPos="86.37" departSpeed="0.00" departDelay="0.72" arrival="183.00" arrivalLane="43544179#7_1" arrivalPos="45.61" arrivalSpeed="12.60" duration="147.00" routeLength="1251.93" waitingTime="26.00" waitingCount="1" stopTime="0.00" timeLoss="45.31" rerouteNo="0" devices="tripinfo_veh63" vType="passenger" speedFactor="0.92" vaporized=""/>
    <tripinfo id="veh150" depart="84.00" departLane="-258551279_0" departPos="128.65" departSpeed="0.00" departDelay="0.00" arrival="183.00" arrivalLane="43544179#6_1" arrivalPos="35.50" arrivalSpeed="12.94" duration="99.00" routeLength="874.00" waitingTime="1.00" waitingCount="1" stopTime="0.00" timeLoss="25.27" rerouteNo="0" devices="tripinfo_veh150" vType="motorcycle" speedFactor="0.97" vaporized=""/>
    <tripinfo id="veh12" depart="7.00" departLane="-383582854#2_0" departPos="2.33" departSpeed="0.00" departDelay="0.28" arrival="184.00" arrivalLane="-250295383#5_1" arrivalPos="53.03" arrivalSpeed="14.01" duration="177.00" routeLength="1523.40" waitingTime="36.00" waitingCount="3" stopTime="0.00" timeLoss="69.42" rerouteNo="0" devices="tripinfo_veh12" vType="passenger" speedFactor="1.12" vaporized=""/>
    <tripinfo id="veh60" depart="34.00" departLane="1136301815#1_1" departPos="6.75" departSpeed="0.00" departDelay="0.40" arrival="186.00" arrivalLane="-176279225#0_1" arrivalPos="70.91" arrivalSpeed="6.03" duration="152.00" routeLength="1160.53" waitingTime="37.00" waitingCount="2" stopTime="0.00" timeLoss="69.61" rerouteNo="0" devices="tripinfo_veh60" vType="passenger" speedFactor="1.06" vaporized=""/>
    <tripinfo id="veh228" depart="128.00" departLane="48778446#0_1" departPos="28.87" departSpeed="0.00" departDelay="0.32" arrival="186.00" arrivalLane="48797766#1_1" arrivalPos="31.54" arrivalSpeed="11.47" duration="58.00" routeLength="559.73" waitingTime="0.00" waitingCount="0" stopTime="0.00" timeLoss="12.49" rerouteNo="0" devices="tripinfo_veh228" vType="motorcycle" speedFactor="0.96" vaporized=""/>
    <tripinfo id="veh39" depart="22.00" departLane="1250915720#4_1" departPos="0.51" departSpeed="0.00" departDelay="0.16" arrival="191.00" arrivalLane="1232511776#1_1" arrivalPos="83.85" arrivalSpeed="13.84" duration="169.00" routeLength="1907.55" waitingTime="0.00" waitingCount="0" stopTime="0.00" timeLoss="16.56" rerouteNo="0" devices="tripinfo_veh39" vType="emergency" speedFactor="1.00" vaporized=""/>
    <tripinfo id="veh138" depart="78.00" departLane="-48778493#1_1" departPos="20.55" departSpeed="0.00" departDelay="0.72" arrival="193.00" arrivalLane="1250915720#3_1" arrivalPos="2.51" arrivalSpeed="4.17" duration="115.00" routeLength="846.11" waitingTime="5.00" waitingCount="1" stopTime="0.00" timeLoss="31.24" rerouteNo="0" devices="tripinfo_veh138" vType="passenger" speedFactor="0.97" vaporized=""/>
    <tripinfo id="veh171" depart="96.00" departLane="48778500#2_1" departPos="16.64" departSpeed="0.00" departDelay="0.24" arrival="194.00" arrivalLane="-67712683_1" arrivalPos="77.22" arrivalSpeed="13.26" duration="98.00" routeLength="1096.95" waitingTime="0.00" waitingCount="0" stopTime="0.00" timeLoss="16.82" rerouteNo="0" devices="tripinfo_veh171" vType="emergency" speedFactor="1.00" vaporized=""/>
    <personinfo id="ped14" depart="70.00" type="DEFAULT_PEDTYPE" speedFactor="0.82" duration="125.00" waitingTime="0.00" timeLoss="13.03" traveltime="125.00">
        <walk depart="70.00" departPos="0.00" arrival="195.00" arrivalPos="8.73" duration="125.00" routeLength="127.91" timeLoss="13.03" maxSpeed="1.14"/>
    </personinfo>
    <tripinfo id="veh30" depart="17.00" departLane="-43546449#0_1" departPos="55.68" departSpeed="0.00" departDelay="0.20" arrival="198.00" arrivalLane="859728622_0" arrivalPos="319.42" arrivalSpeed="4.70" duration="181.00" routeLength="1409.78" waitingTime="9.00" waitingCount="1" stopTime="0.00" timeLoss="40.85" rerouteNo="0" devices="tripinfo_veh30" vType="passenger" speedFactor="0.99" vaporized=""/>
    <tripinfo id="veh41" depart="23.00" departLane="48778480#5_1" departPos="83.26" departSpeed="0.00" departDelay="0.04" arrival="200.00" arrivalLane="-647347140#1_1" arrivalPos="28.09" arrivalSpeed="10.81" duration="177.00" routeLength="1683.13" waitingTime="15.00" waitingCount="1" stopTime="0.00" timeLoss="44.34" rerouteNo="0" devices="tripinfo_veh41" vType="passenger" speedFactor="0.95" vaporized=""/>
    <tripinfo id="veh337" depart="189.00" departLane="43544138#0_1" departPos="33.98" departSpeed="0.00" departDelay="0.28" arrival="201.00" arrivalLane="-383582518#1_0" arrivalPos="15.40" arrivalSpeed="5.09" duration="12.00" routeLength="75.49" waitingTime="0.00" waitingCount="0" stopTime="0.00" timeLoss="4.32" rerouteNo="0" devices="tripinfo_veh337" vType="motorcycle" speedFactor="1.11" vaporized=""/>
    <tripinfo id="veh136" depart="77.00" departLane="40330571#1_1" departPos="0.68" departSpeed="0.00" departDelay="0.84" arrival="202.00" arrivalLane="-222605084#3_1" arrivalPos="1.86" arrivalSpeed="4.01" duration="125.00" routeLength="838.66" waitingTime="0.00" waitingCount="0" stopTime="0.00" timeLoss="19.01" rerouteNo="0" devices="tripinfo_veh136" vType="passenger" speedFactor="0.80" vaporized=""/>
    <tripinfo id="veh154" depart="87.00" departLane="383582509_0" departPos="62.98" departSpeed="0.00" departDelay="0.76" arrival="202.00" arrivalLane="43546688#1_1" arrivalPos="71.52" arrivalSpeed="12.57" duration="115.00" routeLength="1155.37" waitingTime="0.00" waitingCount="0" stopTime="0.00" timeLoss="16.24" rerouteNo="0" devices="tripinfo_veh154" vType="passenger" speedFactor="0.91" vaporized=""/>
    <tripinfo id="veh237" depart="133.00" departLane="-1136283379#1_1" departPos="7.57" departSpeed="0.00" departDelay="0.28" arrival="206.00" arrivalLane="48778503#1_1" arrivalPos="56.23" arrivalSpeed="12.95" duration="73.00" routeLength="825.74" waitingTime="0.00" waitingCount="0" stopTime="0.00" timeLoss="7.89" rerouteNo="0" devices="tripinfo_veh237" vType="passenger" speedFactor="0.98" vaporized=""/>
    <tripinfo id="veh229" depart="129.00" departLane="-48797765#2_1" departPos="14.87" departSpeed="0.00" departDelay="0.76" arrival="209.00" arrivalLane="-48797770_1" arrivalPos="20.27" arrivalSpeed="11.58" duration="80.00" routeLength="605.91" waitingTime="0.00" waitingCount="0" stopTime="0.00" timeLoss="15.03" rerouteNo="0" devices="tripinfo_veh229" vType="passenger" speedFactor="0.85" vaporized=""/>
    <tripinfo id="veh46" depart="26.00" departLane="48797770_1" departPos="9.73" departSpeed="0.00" departDelay="0.24" arrival="210.00" arrivalLane="-48736614#2_1" arrivalPos="59.68" arrivalSpeed="11.74" duration="184.00" routeLength="1596.86" waitingTime="33.00" waitingCount="1" stopTime="0.00" timeLoss="64.57" rerouteNo="0" devices="tripinfo_veh46" vType="motorcycle" speedFactor="1.00" vaporized=""/>
    <tripinfo id="veh59" depart="34.00" departLane="-647610982#0_1" departPos="43.84" departSpeed="0.00" departDelay="0.96" arrival="210.00" arrivalLane="40266620_1" arrivalPos="32.51" arrivalSpeed="12.42" duration="176.00" routeLength="1350.91" waitingTime="53.00" waitingCount="1" stopTime="0.00" timeLoss="72.83" rerouteNo="0" devices="tripinfo_veh59" vType="delivery" speedFactor="0.96" vaporized=""/>
    <tripinfo id="veh54" depart="31.00" departLane="43546648#5_1" departPos="7.62" departSpeed="0.00" departDelay="0.76" arrival="212.00" arrivalLane="222605084#4_1" arrivalPos="16.56" arrivalSpeed="4.63" duration="181.00" routeLength="1670.81" waitingTime="0.00" waitingCount="0" stopTime="0.00" timeLoss="34.33" rerouteNo="0" devices="tripinfo_veh54" vType="delivery" speedFactor="0.99" vaporized=""/>
    <tripinfo id="veh218" depart="123.00" departLane="40265793#0_1" departPos="50.72" departSpeed="0.00" departDelay="0.92" arrival="213.00" arrivalLane="143207979#7_1" arrivalPos="72.83" arrivalSpeed="14.91" duration="90.00" routeLength="1072.34" waitingTime="0.00" waitingCount="0" stopTime="0.00" timeLoss="17.48" rerouteNo="0" devices="tripinfo_veh218" vType="passenger" speedFactor="1.12" vaporized=""/>
    <tripinfo id="veh13" depart="8.00" departLane="1250915720#3_1" departPos="1.72" departSpeed="0.00" departDelay="0.72" arrival="217.00" arrivalLane="48778472_1" arrivalPos="49.54" arrivalSpeed="11.64" duration="209.00" routeLength="1382.86" waitingTime="39.00" waitingCount="2" stopTime="0.00" timeLoss="78.58" rerouteNo="0" devices="tripinfo_veh13" vType="passenger" speedFactor="0.90" vaporized=""/>
    <tripinfo id="veh61" depart="35.00" departLane="48797767#2_1" departPos="3.67" departSpeed="0.00" departDelay="0.84" arrival="217.00" arrivalLane="-143207982#7_1" arrivalPos="28.87" arrivalSpeed="12.18" duration="182.00" routeLength="1541.11" waitingTime="33.00" waitingCount="2" stopTime="0.00" timeLoss="77.21" rerouteNo="0" devices="tripinfo_veh61" vType="passenger" speedFactor="1.12" vaporized=""/>
    <tripinfo id="veh102" depart="58.00" departLane="43546057_1" departPos="129.05" departSpeed="0.00" departDelay="0.88" arrival="217.00" arrivalLane="-996489799#2_0" arrivalPos="59.30" arrivalSpeed="4.75" duration="159.00" routeLength="1618.39" waitingTime="5.00" waitingCount="2" stopTime="0.00" timeLoss="33.39" rerouteNo="0" devices="tripinfo_veh102" vType="passenger" speedFactor="1.02" vaporized=""/>
    <tripinfo id="veh308" depart="173.00" departLane="-48736644_1" departPos="67.36" departSpeed="0.00" departDelay="0.52" arrival="217.00" arrivalLane="48736639#1_1" arrivalPos="23.89" arrivalSpeed="7.24" duration="44.00" routeLength="430.48" waitingTime="0.00" waitingCount="0" stopTime="0.00" timeLoss="12.69" rerouteNo="0" devices="tripinfo_veh308" vType="motorcycle" speedFactor="1.12" vaporized=""/>
    <tripinfo id="veh107" depart="60.00" departLane="-40314853#2_1" departPos="23.56" departSpeed="0.00" departDelay="0.08" arrival="219.00" arrivalLane="40330557#2_1" arrivalPos="100.16" arrivalSpeed="15.28" duration="159.00" routeLength="2067.05" waitingTime="0.00" waitingCount="0" stopTime="0.00" timeLoss="22.06" rerouteNo="0" devices="tripinfo_veh107" vType="passenger" speedFactor="1.12" vaporized=""/>
    <tripinfo id="veh294" depart="165.00" departLane="383582854#0_0" departPos="1.95" departSpeed="0.00" departDelay="0.36" arrival="219.00" arrivalLane="48736624#3_1" arrivalPos="19.82" arrivalSpeed="9.76" duration="54.00" routeLength="364.30" waitingTime="0.00" waitingCount="0" stopTime="0.00" timeLoss="12.95" rerouteNo="0" devices="tripinfo_veh294" vType="passenger" speedFactor="1.05" vaporized=""/>
    <tripinfo id="veh298" depart="167.00" departLane="-48736640#1_1" departPos="33.64" departSpeed="0.00" departDelay="0.12" arrival="222.00" arrivalLane="48736640#1_1" arrivalPos="66.91" arrivalSpeed="14.87" duration="55.00" routeLength="571.70" waitingTime="0.00" waitingCount="0" stopTime="0.00" timeLoss="13.86" rerouteNo="0" devices="tripinfo_veh298" vType="passenger" speedFactor="1.07" vaporized=""/>
    <personinfo id="ped22" depart="110.00" type="DEFAULT_PEDTYPE" speedFactor="1.06" duration="113.00" waitingTime="0.00" timeLoss="12.14" traveltime="113.00">
        <walk depart="110.00" departPos="0.00" arrival="223.00" arrivalPos="1.82" duration="113.00" routeLength="148.21" timeLoss="12.14" maxSpeed="1.47"/>
    </personinfo>
    <tripinfo id="veh263" depart="148.00" departLane="-43544184#2_1" departPos="34.05" departSpeed="0.00" departDelay="0.72" arrival="223.00" arrivalLane="43546064#0_1" arrivalPos="168.39" arrivalSpeed="14.74" duration="75.00" routeLength="927.45" waitingTime="0.00" waitingCount="0" stopTime="0.00" timeLoss="11.13" rerouteNo="0" devices="tripinfo_veh263" vType="passenger" speedFactor="1.09" vaporized=""/>
    <tripinfo id="veh178" depart="100.00" departLane="-1135856746#0_1" departPos="4.27" departSpeed="0.00" departDelay="0.32" arrival="225.00" arrivalLane="43546688#1_1" arrivalPos="71.52" arrivalSpeed="13.28" duration="125.00" routeLength="1195.02" waitingTime="10.00" waitingCount="1" stopTime="0.00" timeLoss="36.95" rerouteNo="0" devices="tripinfo_veh178" vType="delivery" speedFactor="1.03" vaporized=""/>
    <tripinfo id="veh56" depart="32.00" departLane="40314583#1_1" departPos="31.68" departSpeed="0.00" departDelay="0.64" arrival="226.00" arrivalLane="40314876_1" arrivalPos="38.09" arrivalSpeed="11.71" duration="194.00" routeLength="1508.18" waitingTime="30.00" waitingCount="2" stopTime="0.00" timeLoss="70.17" rerouteNo="0" devices="tripinfo_veh56" vType="passenger" speedFactor="0.91" vaporized=""/>
    <tripinfo id="veh225" depart="126.00" departLane="40265775#1_1" departPos="57.78" departSpeed="0.00" departDelay="0.00" arrival="227.00" arrivalLane="-48736646#0_1" arrivalPos="88.89" arrivalSpeed="6.01" duration="101.00" routeLength="1118.14" waitingTime="1.00" waitingCount="1" stopTime="0.00" timeLoss="26.55" rerouteNo="0" devices="tripinfo_veh225" vType="delivery" speedFactor="1.13" vaporized=""/>
    <tripinfo id="veh130" depart="73.00" departLane="174818022#1_0" departPos="21.34" departSpeed="0.00" departDelay="0.20" arrival="228.00" arrivalLane="-222609004#1_1" arrivalPos="58.62" arrivalSpeed="15.84" duration="155.00" routeLength="1378.61" waitingTime="15.00" waitingCount="1" stopTime="0.00" timeLoss="35.19" rerouteNo="0" devices="tripinfo_veh130" vType="passenger" speedFactor="1.18" vaporized=""/>
    <tripinfo id="veh79" depart="45.00" departLane="-48736617#1_1" departPos="70.09" departSpeed="0.00" departDelay="0.76" arrival="229.00" arrivalLane="48736664#1_1" arrivalPos="36.30" arrivalSpeed="14.56" duration="184.00" routeLength="1388.37" waitingTime="36.00" waitingCount="3" stopTime="0.00" timeLoss="87.59" rerouteNo="0" devices="tripinfo_veh79" vType="passenger" speedFactor="1.10" vaporized=""/>
    <tripinfo id="veh48" depart="27.00" departLane="1135854143_1" departPos="20.18" departSpeed="0.00" departDelay="0.12" arrival="230.00" arrivalLane="-48736607#0_1" arrivalPos="36.67" arrivalSpeed="11.83" duration="203.00" routeLength="1664.85" waitingTime="24.00" waitingCount="2" stopTime="0.00" timeLoss="61.84" rerouteNo="0" devices="tripinfo_veh48" vType="motorcycle" speedFactor="0.90" vaporized=""/>
    <tripinfo id="veh243" depart="137.00" departLane="-945793490#3_1" departPos="18.06" departSpeed="0.00" departDelay="0.92" arrival="232.00" arrivalLane="-223883703_0" arrivalPos="83.93" arrivalSpeed="5.43" duration="95.00" routeLength="980.10" waitingTime="0.00" waitingCount="0" stopTime="0.00" timeLoss="9.48" rerouteNo="0" devices="tripinfo_veh243" vType="passenger" speedFactor="1.14" vaporized=""/>
    <tripinfo id="veh273" depart="153.00" departLane="33913538#7_2" departPos="44.12" departSpeed="0.00" departDelay="0.12" arrival="232.00" arrivalLane="492965073#0_1" arrivalPos="173.89" arrivalSpeed="11.37" duration="79.00" routeLength="893.87" waitingTime="0.00" waitingCount="0" stopTime="0.00" timeLoss="7.09" rerouteNo="0" devices="tripinfo_veh273" vType="passenger" speedFactor="0.90" vaporized=""/>
    <tripinfo id="veh143" depart="81.00" departLane="48778461#0_1" departPos="32.93" departSpeed="0.00" departDelay="0.92" arrival="233.00" arrivalLane="40236203#4_1" arrivalPos="312.22" arrivalSpeed="4.99" duration="152.00" routeLength="919.39" waitingTime="42.00" waitingCount="1" stopTime="0.00" timeLoss="70.46" rerouteNo="0" devices="tripinfo_veh143" vType="passenger" speedFactor="0.90" vaporized=""/>
    <tripinfo id="veh127" depart="72.00" departLane="-48778500#0_1" departPos="11.20" departSpeed="0.00" departDelay="0.88" arrival="235.00" arrivalLane="-43546039#0_1" arrivalPos="195.13" arrivalSpeed="14.12" duration="163.00" routeLength="1844.43" waitingTime="1.00" waitingCount="1" stopTime="0.00" timeLoss="34.21" rerouteNo="0" devices="tripinfo_veh127" vType="passenger" speedFactor="1.07" vaporized=""/>
    <tripinfo id="veh71" depart="40.00" departLane="-1205517951_0" departPos="3.95" departSpeed="0.00" departDelay="0.24" arrival="236.00" arrivalLane="43546053#0_1" arrivalPos="315.70" arrivalSpeed="13.24" duration="196.00" routeLength="2063.93" waitingTime="15.00" waitingCount="1" stopTime="0.00" timeLoss="37.66" rerouteNo="0" devices="tripinfo_veh71" vType="passenger" speedFactor="1.01" vaporized=""/>
    <personinfo id="ped9" depart="45.00" type="DEFAULT_PEDTYPE" speedFactor="1.10" duration="192.00" waitingTime="0.00" timeLoss="19.26" traveltime="192.00">
        <walk depart="45.00" departPos="0.00" arrival="237.00" arrivalPos="10.62" duration="192.00" routeLength="263.72" timeLoss="19.26" maxSpeed="1.53"/>
    </personinfo>
    <tripinfo id="veh20" depart="12.00" departLane="-354259933#2_1" departPos="58.14" departSpeed="0.00" departDelay="0.80" arrival="237.00" arrivalLane="-43544001#9_1" arrivalPos="174.06" arrivalSpeed="11.28" duration="225.00" routeLength="1955.90" waitingTime="43.00" waitingCount="1" stopTime="0.00" timeLoss="64.09" rerouteNo="0" devices="tripinfo_veh20" vType="passenger" speedFactor="0.89" vaporized=""/>
    <tripinfo id="veh152" depart="86.00" departLane="1136017144_0" departPos="1.94" departSpeed="0.00" departDelay="0.88" arrival="237.00" arrivalLane="-383582501_0" arrivalPos="63.46" arrivalSpeed="3.90" duration="151.00" routeLength="904.18" waitingTime="20.00" waitingCount="1" stopTime="0.00" timeLoss="40.93" rerouteNo="0" devices="tripinfo_veh152" vType="passenger" speedFactor="0.93" vaporized=""/>