<?xml version="1.0" encoding="UTF-8"?>

<!-- generated on 2025-06-12 12:34:00 by Eclipse SUMO sumo Version 1.22.0
<sumoConfiguration xmlns:xsi="http://www.w3.org/2001/XMLSchema-instance" xsi:noNamespaceSchemaLocation="http://sumo.dlr.de/xsd/sumoConfiguration.xsd">

    <input>
        <net-file value="osm.net.xml"/>
        <route-files value="full.rou.xml, ped.rou.xml, truck.rou.xml"/>
        <additional-files value="osm.poly.xml, vtypes.xml"/>
    </input>

    <output>
        <summary-output value="summary.xml"/>
        <tripinfo-output value="E:\licenta\oras-mediu\2025-06-05-11-45-23\baseline_outputs\tripinfo_baseline_ep21.xml"/>
    </output>

    <processing>
        <ignore-route-errors value="true"/>
        <tls.actuated.jam-threshold value="30"/>
    </processing>

    <routing>
        <device.rerouting.adaptation-steps value="18"/>
        <device.rerouting.adaptation-interval value="10"/>
    </routing>

    <report>
        <verbose value="true"/>
        <duration-log.statistics value="true"/>
        <no-step-log value="true"/>
    </report>

    <traci_server>
        <remote-port value="64557"/>
    </traci_server>

    <gui_only>
        <gui-settings-file value="osm.view.xml"/>
    </gui_only>

</sumoConfiguration>
-->

<tripinfos xmlns:xsi="http://www.w3.org/2001/XMLSchema-instance" xsi:noNamespaceSchemaLocation="http://sumo.dlr.de/xsd/tripinfo_file.xsd">
    <tripinfo id="veh88" depart="55.00" departLane="-40330557#0_1" departPos="50.63" departSpeed="0.00" departDelay="0.44" arrival="58.00" arrivalLane="-353939570#6_1" arrivalPos="0.20" arrivalSpeed="6.90" duration="3.00" routeLength="9.35" waitingTime="0.00" waitingCount="0" stopTime="0.00" timeLoss="1.64" rerouteNo="0" devices="tripinfo_veh88" vType="passenger" speedFactor="1.25" vaporized=""/>
    <tripinfo id="veh72" depart="45.00" departLane="48736632#1_1" departPos="50.77" departSpeed="0.00" departDelay="0.36" arrival="66.00" arrivalLane="-48736618_1" arrivalPos="45.60" arrivalSpeed="10.88" duration="21.00" routeLength="137.57" waitingTime="0.00" waitingCount="0" stopTime="0.00" timeLoss="6.31" rerouteNo="0" devices="tripinfo_veh72" vType="passenger" speedFactor="0.83" vaporized=""/>
    <tripinfo id="veh61" depart="38.00" departLane="48797772_1" departPos="11.28" departSpeed="0.00" departDelay="0.18" arrival="71.00" arrivalLane="-1135856957_0" arrivalPos="27.07" arrivalSpeed="4.67" duration="33.00" routeLength="277.14" waitingTime="0.00" waitingCount="0" stopTime="0.00" timeLoss="8.45" rerouteNo="0" devices="tripinfo_veh61" vType="passenger" speedFactor="1.03" vaporized=""/>
    <tripinfo id="veh67" depart="42.00" departLane="40236220#2_1" departPos="11.89" departSpeed="0.00" departDelay="0.46" arrival="85.00" arrivalLane="859732802#0_0" arrivalPos="5.59" arrivalSpeed="5.00" duration="43.00" routeLength="459.04" waitingTime="0.00" waitingCount="0" stopTime="0.00" timeLoss="9.16" rerouteNo="0" devices="tripinfo_veh67" vType="passenger" speedFactor="1.08" vaporized=""/>
    <tripinfo id="veh54" depart="34.00" departLane="945794107_1" departPos="84.81" departSpeed="0.00" departDelay="0.52" arrival="86.00" arrivalLane="-354259933#0_1" arrivalPos="10.70" arrivalSpeed="12.05" duration="52.00" routeLength="497.02" waitingTime="0.00" waitingCount="0" stopTime="0.00" timeLoss="8.34" rerouteNo="0" devices="tripinfo_veh54" vType="passenger" speedFactor="0.91" vaporized=""/>
    <tripinfo id="veh14" depart="9.00" departLane="-40299276#1_1" departPos="50.57" departSpeed="0.00" departDelay="0.32" arrival="90.00" arrivalLane="492965073#7_2" arrivalPos="34.78" arrivalSpeed="13.30" duration="81.00" routeLength="906.02" waitingTime="0.00" waitingCount="0" stopTime="0.00" timeLoss="13.62" rerouteNo="0" devices="tripinfo_veh14" vType="emergency" speedFactor="1.00" vaporized=""/>
    <tripinfo id="veh15" depart="10.00" departLane="647640187_0" departPos="39.34" departSpeed="0.00" departDelay="0.70" arrival="91.00" arrivalLane="-25379984#2_1" arrivalPos="135.87" arrivalSpeed="13.73" duration="81.00" routeLength="897.85" waitingTime="0.00" waitingCount="0" stopTime="0.00" timeLoss="10.19" rerouteNo="0" devices="tripinfo_veh15" vType="passenger" speedFactor="1.02" vaporized=""/>
    <tripinfo id="veh93" depart="58.00" departLane="-48736614#1_1" departPos="100.49" departSpeed="0.00" departDelay="0.34" arrival="103.00" arrivalLane="-48736632#1_1" arrivalPos="49.82" arrivalSpeed="12.77" duration="45.00" routeLength="429.97" waitingTime="0.00" waitingCount="0" stopTime="0.00" timeLoss="9.70" rerouteNo="0" devices="tripinfo_veh93" vType="passenger" speedFactor="0.97" vaporized=""/>
    <tripinfo id="veh66" depart="41.00" departLane="43546648#5_1" departPos="6.34" departSpeed="0.00" departDelay="0.08" arrival="104.00" arrivalLane="-40304754#4_1" arrivalPos="101.37" arrivalSpeed="13.70" duration="63.00" routeLength="637.41" waitingTime="0.00" waitingCount="0" stopTime="0.00" timeLoss="14.06" rerouteNo="0" devices="tripinfo_veh66" vType="passenger" speedFactor="1.02" vaporized=""/>
    <tripinfo id="veh108" depart="67.00" departLane="-43546648#1_1" departPos="95.80" departSpeed="0.00" departDelay="0.04" arrival="128.00" arrivalLane="48778481#8_2" arrivalPos="12.21" arrivalSpeed="10.72" duration="61.00" routeLength="505.84" waitingTime="0.00" waitingCount="0" stopTime="0.00" timeLoss="13.45" rerouteNo="0" devices="tripinfo_veh108" vType="motorcycle" speedFactor="0.84" vaporized=""/>
    <tripinfo id="veh19" depart="12.00" departLane="48778481#4_2" departPos="25.32" departSpeed="0.00" departDelay="0.22" arrival="130.00" arrivalLane="-1136283380_1" arrivalPos="22.56" arrivalSpeed="6.11" duration="118.00" routeLength="977.55" waitingTime="3.00" waitingCount="1" stopTime="0.00" timeLoss="19.33" rerouteNo="0" devices="tripinfo_veh19" vType="passenger" speedFactor="0.87" vaporized=""/>
    <tripinfo id="veh25" depart="16.00" departLane="33913538#7_2" departPos="81.73" departSpeed="0.00" departDelay="0.50" arrival="130.00" arrivalLane="48797766#0_1" arrivalPos="21.21" arrivalSpeed="10.92" duration="114.00" routeLength="1048.43" waitingTime="18.00" waitingCount="1" stopTime="0.00" timeLoss="35.49" rerouteNo="0" devices="tripinfo_veh25" vType="passenger" speedFactor="0.99" vaporized=""/>
    <tripinfo id="veh23" depart="15.00" departLane="-945793485#0_1" departPos="14.91" departSpeed="0.00" departDelay="0.74" arrival="133.00" arrivalLane="250295381_1" arrivalPos="38.77" arrivalSpeed="13.97" duration="118.00" routeLength="1481.35" waitingTime="0.00" waitingCount="0" stopTime="0.00" timeLoss="21.75" rerouteNo="0" devices="tripinfo_veh23" vType="passenger" speedFactor="1.15" vaporized=""/>
    <personinfo id="ped13" depart="65.00" type="DEFAULT_PEDTYPE" speedFactor="1.01" duration="72.00" waitingTime="0.00" timeLoss="8.21" traveltime="72.00">
        <walk depart="65.00" departPos="0.00" arrival="137.00" arrivalPos="8.28" duration="72.00" routeLength="89.14" timeLoss="8.21" maxSpeed="1.40"/>
    </personinfo>
    <personinfo id="ped16" depart="80.00" type="DEFAULT_PEDTYPE" speedFactor="0.85" duration="57.00" waitingTime="0.00" timeLoss="6.56" traveltime="57.00">
        <walk depart="80.00" departPos="0.00" arrival="137.00" arrivalPos="12.22" duration="57.00" routeLength="59.27" timeLoss="6.56" maxSpeed="1.17"/>
    </personinfo>
    <tripinfo id="veh107" depart="67.00" departLane="-258551283#1_1" departPos="51.59" departSpeed="0.00" departDelay="0.66" arrival="138.00" arrivalLane="-43544197#5_1" arrivalPos="40.70" arrivalSpeed="14.33" duration="71.00" routeLength="756.34" waitingTime="0.00" waitingCount="0" stopTime="0.00" timeLoss="14.81" rerouteNo="0" devices="tripinfo_veh107" vType="passenger" speedFactor="1.03" vaporized=""/>
    <tripinfo id="veh28" depart="18.00" departLane="48778480#4_1" departPos="2.65" departSpeed="0.00" departDelay="0.64" arrival="141.00" arrivalLane="48778464#0_1" arrivalPos="23.97" arrivalSpeed="11.50" duration="123.00" routeLength="733.32" waitingTime="37.00" waitingCount="1" stopTime="0.00" timeLoss="61.01" rerouteNo="0" devices="tripinfo_veh28" vType="passenger" speedFactor="0.94" vaporized=""/>
    <tripinfo id="veh8" depart="5.00" departLane="-1136301819_1" departPos="9.30" departSpeed="0.00" departDelay="0.04" arrival="144.00" arrivalLane="996489799#0_0" arrivalPos="0.20" arrivalSpeed="4.03" duration="139.00" routeLength="1193.94" waitingTime="3.00" waitingCount="1" stopTime="0.00" timeLoss="34.40" rerouteNo="0" devices="tripinfo_veh8" vType="passenger" speedFactor="0.92" vaporized=""/>
    <tripinfo id="veh11" depart="7.00" departLane="-40345956#1_1" departPos="25.28" departSpeed="0.00" departDelay="0.18" arrival="148.00" arrivalLane="1251292611_1" arrivalPos="3.48" arrivalSpeed="5.09" duration="141.00" routeLength="653.20" waitingTime="0.00" waitingCount="0" stopTime="0.00" timeLoss="13.45" rerouteNo="0" devices="tripinfo_veh11" vType="bicycle" speedFactor="0.93" vaporized=""/>
    <tripinfo id="veh70" depart="44.00" departLane="43573547#2_1" departPos="33.52" departSpeed="0.00" departDelay="0.60" arrival="148.00" arrivalLane="43544138#1_1" arrivalPos="28.80" arrivalSpeed="13.62" duration="104.00" routeLength="1242.14" waitingTime="0.00" waitingCount="0" stopTime="0.00" timeLoss="11.66" rerouteNo="0" devices="tripinfo_veh70" vType="passenger" speedFactor="1.01" vaporized=""/>
    <personinfo id="ped20" depart="100.00" type="DEFAULT_PEDTYPE" speedFactor="0.93" duration="50.00" waitingTime="0.00" timeLoss="4.92" traveltime="50.00">
        <walk depart="100.00" departPos="0.00" arrival="150.00" arrivalPos="19.32" duration="50.00" routeLength="58.23" timeLoss="4.92" maxSpeed="1.29"/>
    </personinfo>
    <tripinfo id="veh75" depart="47.00" departLane="-48797768_1" departPos="80.46" departSpeed="0.00" departDelay="0.50" arrival="152.00" arrivalLane="-43547580_1" arrivalPos="500.23" arrivalSpeed="10.96" duration="105.00" routeLength="1093.20" waitingTime="0.00" waitingCount="0" stopTime="0.00" timeLoss="10.73" rerouteNo="0" devices="tripinfo_veh75" vType="passenger" speedFactor="0.86" vaporized=""/>
    <tripinfo id="veh34" depart="22.00" departLane="-43546688#2_1" departPos="40.77" departSpeed="0.00" departDelay="0.92" arrival="154.00" arrivalLane="43573547#7_1" arrivalPos="83.95" arrivalSpeed="13.55" duration="132.00" routeLength="1437.12" waitingTime="0.00" waitingCount="0" stopTime="0.00" timeLoss="27.13" rerouteNo="0" devices="tripinfo_veh34" vType="passenger" speedFactor="1.04" vaporized=""/>
    <tripinfo id="veh109" depart="68.00" departLane="-48778524#4_1" departPos="0.59" departSpeed="0.00" departDelay="0.42" arrival="158.00" arrivalLane="143207979#2_1" arrivalPos="38.81" arrivalSpeed="13.33" duration="90.00" routeLength="1058.60" waitingTime="0.00" waitingCount="0" stopTime="0.00" timeLoss="13.39" rerouteNo="0" devices="tripinfo_veh109" vType="passenger" speedFactor="1.04" vaporized=""/>
    <tripinfo id="veh166" depart="103.00" departLane="40236220#2_1" departPos="4.42" departSpeed="0.00" departDelay="0.08" arrival="159.00" arrivalLane="-43546789#1_1" arrivalPos="47.64" arrivalSpeed="13.24" duration="56.00" routeLength="586.37" waitingTime="0.00" waitingCount="0" stopTime="0.00" timeLoss="11.44" rerouteNo="0" devices="tripinfo_veh166" vType="emergency" speedFactor="1.00" vaporized=""/>
    <tripinfo id="veh52" depart="33.00" departLane="383582501_0" departPos="20.52" departSpeed="0.00" departDelay="0.76" arrival="161.00" arrivalLane="-383582854#0_0" arrivalPos="13.09" arrivalSpeed="4.71" duration="128.00" routeLength="1120.81" waitingTime="9.00" waitingCount="1" stopTime="0.00" timeLoss="27.14" rerouteNo="0" devices="tripinfo_veh52" vType="passenger" speedFactor="0.96" vaporized=""/>
    <tripinfo id="veh137" depart="85.00" departLane="-48778500#2_1" departPos="142.61" departSpeed="0.00" departDelay="0.06" arrival="162.00" arrivalLane="-33909936#2_1" arrivalPos="60.97" arrivalSpeed="11.89" duration="77.00" routeLength="694.76" waitingTime="0.00" waitingCount="0" stopTime="0.00" timeLoss="14.96" rerouteNo="0" devices="tripinfo_veh137" vType="passenger" speedFactor="0.87" vaporized=""/>
    <tripinfo id="veh149" depart="93.00" departLane="-859732803#0_0" departPos="7.99" departSpeed="0.00" departDelay="0.62" arrival="163.00" arrivalLane="40306149_1" arrivalPos="62.47" arrivalSpeed="12.67" duration="70.00" routeLength="668.91" waitingTime="0.00" waitingCount="0" stopTime="0.00" timeLoss="12.37" rerouteNo="0" devices="tripinfo_veh149" vType="passenger" speedFactor="0.93" vaporized=""/>
    <tripinfo id="veh51" depart="32.00" departLane="48778493#2_1" departPos="41.80" departSpeed="0.00" departDelay="0.38" arrival="168.00" arrivalLane="-1250915720#6_1" arrivalPos="63.36" arrivalSpeed="4.43" duration="136.00" routeLength="843.99" waitingTime="36.00" waitingCount="1" stopTime="0.00" timeLoss="57.49" rerouteNo="0" devices="tripinfo_veh51" vType="delivery" speedFactor="0.99" vaporized=""/>
    <tripinfo id="veh84" depart="53.00" departLane="48736613#4_1" departPos="18.06" departSpeed="0.00" departDelay="0.92" arrival="170.00" arrivalLane="1205541343#1_1" arrivalPos="33.13" arrivalSpeed="5.78" duration="117.00" routeLength="1084.48" waitingTime="16.00" waitingCount="1" stopTime="0.00" timeLoss="34.59" rerouteNo="0" devices="tripinfo_veh84" vType="passenger" speedFactor="1.08" vaporized=""/>
    <tripinfo id="veh87" depart="54.00" departLane="40345956#1_1" departPos="73.34" departSpeed="0.00" departDelay="0.06" arrival="170.00" arrivalLane="984508802_0" arrivalPos="57.38" arrivalSpeed="5.70" duration="116.00" routeLength="766.05" waitingTime="9.00" waitingCount="1" stopTime="0.00" timeLoss="48.68" rerouteNo="0" devices="tripinfo_veh87" vType="delivery" speedFactor="1.03" vaporized=""/>
    <tripinfo id="veh85" depart="53.00" departLane="222609004#1_1" departPos="24.90" departSpeed="0.00" departDelay="0.30" arrival="171.00" arrivalLane="-258551284#1_1" arrivalPos="135.26" arrivalSpeed="14.15" duration="118.00" routeLength="1316.94" waitingTime="0.00" waitingCount="0" stopTime="0.00" timeLoss="21.16" rerouteNo="0" devices="tripinfo_veh85" vType="passenger" speedFactor="1.03" vaporized=""/>
    <personinfo id="ped28" depart="140.00" type="DEFAULT_PEDTYPE" speedFactor="1.04" duration="32.00" waitingTime="0.00" timeLoss="3.56" traveltime="32.00">
        <walk depart="140.00" departPos="0.00" arrival="172.00" arrivalPos="40.92" duration="32.00" routeLength="40.92" timeLoss="3.56" maxSpeed="1.44"/>
    </personinfo>
    <tripinfo id="veh32" depart="20.00" departLane="-43546105#0_1" departPos="57.71" departSpeed="0.00" departDelay="0.16" arrival="174.00" arrivalLane="-250295383#6_1" arrivalPos="25.71" arrivalSpeed="12.71" duration="154.00" routeLength="1633.40" waitingTime="16.00" waitingCount="1" stopTime="0.00" timeLoss="40.72" rerouteNo="0" devices="tripinfo_veh32" vType="passenger" speedFactor="1.07" vaporized=""/>
    <personinfo id="ped30" depart="150.00" type="DEFAULT_PEDTYPE" speedFactor="1.01" duration="27.00" waitingTime="0.00" timeLoss="2.81" traveltime="27.00">
        <walk depart="150.00" departPos="0.00" arrival="177.00" arrivalPos="12.86" duration="27.00" routeLength="34.08" timeLoss="2.81" maxSpeed="1.41"/>
    </personinfo>
    <tripinfo id="veh95" depart="59.00" departLane="-48778446#1_1" departPos="14.68" departSpeed="0.00" departDelay="0.10" arrival="185.00" arrivalLane="48736612#3_1" arrivalPos="54.88" arrivalSpeed="14.98" duration="126.00" routeLength="1209.04" waitingTime="22.00" waitingCount="1" stopTime="0.00" timeLoss="45.98" rerouteNo="0" devices="tripinfo_veh95" vType="passenger" speedFactor="1.13" vaporized=""/>
    <tripinfo id="veh138" depart="86.00" departLane="43546789#2_1" departPos="29.73" departSpeed="0.00" departDelay="0.44" arrival="187.00" arrivalLane="250295384_1" arrivalPos="124.18" arrivalSpeed="11.32" duration="101.00" routeLength="896.05" waitingTime="0.00" waitingCount="0" stopTime="0.00" timeLoss="21.79" rerouteNo="0" devices="tripinfo_veh138" vType="passenger" speedFactor="0.90" vaporized=""/>
    <tripinfo id="veh163" depart="102.00" departLane="996984134_0" departPos="13.10" departSpeed="0.00" departDelay="0.94" arrival="191.00" arrivalLane="48778497_1" arrivalPos="231.08" arrivalSpeed="11.22" duration="89.00" routeLength="768.23" waitingTime="0.00" waitingCount="0" stopTime="0.00" timeLoss="10.70" rerouteNo="0" devices="tripinfo_veh163" vType="passenger" speedFactor="0.83" vaporized=""/>
    <tripinfo id="veh57" depart="36.00" departLane="994066251#1_0" departPos="1.33" departSpeed="0.00" departDelay="0.66" arrival="200.00" arrivalLane="-1135855898_0" arrivalPos="54.52" arrivalSpeed="4.54" duration="164.00" routeLength="1314.45" waitingTime="30.00" waitingCount="2" stopTime="0.00" timeLoss="56.11" rerouteNo="0" devices="tripinfo_veh57" vType="delivery" speedFactor="0.96" vaporized=""/>
    <tripinfo id="veh132" depart="83.00" departLane="-354259933#1_1" departPos="13.50" departSpeed="0.00" departDelay="1.16" arrival="200.00" arrivalLane="996984132_0" arrivalPos="97.02" arrivalSpeed="5.82" duration="117.00" routeLength="1124.45" waitingTime="9.00" waitingCount="1" stopTime="0.00" timeLoss="32.13" rerouteNo="0" devices="tripinfo_veh132" vType="passenger" speedFactor="1.13" vaporized=""/>
    <tripinfo id="veh10" depart="7.00" departLane="994066250_0" departPos="119.86" departSpeed="0.00" departDelay="0.80" arrival="201.00" arrivalLane="-40236203#2_1" arrivalPos="10.99" arrivalSpeed="12.04" duration="194.00" routeLength="1452.23" waitingTime="48.00" waitingCount="2" stopTime="0.00" timeLoss="72.29" rerouteNo="0" devices="tripinfo_veh10" vType="passenger" speedFactor="0.90" vaporized=""/>
    <tripinfo id="veh73" depart="46.00" departLane="353939585#0_2" departPos="20.82" departSpeed="0.00" departDelay="0.74" arrival="202.00" arrivalLane="-40236232#0_1" arrivalPos="39.66" arrivalSpeed="14.59" duration="156.00" routeLength="1688.36" waitingTime="5.00" waitingCount="1" stopTime="0.00" timeLoss="35.97" rerouteNo="0" devices="tripinfo_veh73" vType="passenger" speedFactor="1.05" vaporized=""/>
    <tripinfo id="veh99" depart="62.00" departLane="43544197#8_1" departPos="93.98" departSpeed="0.00" departDelay="0.62" arrival="203.00" arrivalLane="43546789#2_1" arrivalPos="71.56" arrivalSpeed="13.85" duration="141.00" routeLength="1631.59" waitingTime="0.00" waitingCount="0" stopTime="0.00" timeLoss="22.91" rerouteNo="0" devices="tripinfo_veh99" vType="passenger" speedFactor="1.03" vaporized=""/>
    <tripinfo id="veh26" depart="17.00" departLane="40299264#0_1" departPos="10.93" departSpeed="0.00" departDelay="0.88" arrival="206.00" arrivalLane="43573547#2_1" arrivalPos="42.00" arrivalSpeed="12.36" duration="189.00" routeLength="2079.87" waitingTime="0.00" waitingCount="0" stopTime="0.00" timeLoss="28.71" rerouteNo="0" devices="tripinfo_veh26" vType="passenger" speedFactor="0.97" vaporized=""/>
    <tripinfo id="veh37" depart="23.00" departLane="-40304754#2_1" departPos="42.96" departSpeed="0.00" departDelay="0.06" arrival="208.00" arrivalLane="-383582500_0" arrivalPos="179.38" arrivalSpeed="2.20" duration="185.00" routeLength="1197.92" waitingTime="1.00" waitingCount="1" stopTime="0.00" timeLoss="36.72" rerouteNo="0" devices="tripinfo_veh37" vType="passenger" speedFactor="0.95" vaporized=""/>
    <tripinfo id="veh96" depart="60.00" departLane="-48778500#2_1" departPos="213.17" departSpeed="0.00" departDelay="0.48" arrival="212.00" arrivalLane="-945793485#1_1" arrivalPos="18.53" arrivalSpeed="11.33" duration="152.00" routeLength="1434.82" waitingTime="4.00" waitingCount="1" stopTime="0.00" timeLoss="35.10" rerouteNo="0" devices="tripinfo_veh96" vType="passenger" speedFactor="0.99" vaporized=""/>
    <tripinfo id="veh9" depart="6.00" departLane="222605085#0_1" departPos="43.72" departSpeed="0.00" departDelay="0.42" arrival="216.00" arrivalLane="-43546460#10_1" arrivalPos="54.13" arrivalSpeed="15.39" duration="210.00" routeLength="2562.46" waitingTime="0.00" waitingCount="0" stopTime="0.00" timeLoss="39.48" rerouteNo="0" devices="tripinfo_veh9" vType="passenger" speedFactor="1.12" vaporized=""/>
    <tripinfo id="veh133" depart="83.00" departLane="43544179#6_1" departPos="14.98" departSpeed="0.00" departDelay="0.54" arrival="216.00" arrivalLane="40315648#0_1" arrivalPos="94.16" arrivalSpeed="13.05" duration="133.00" routeLength="1360.33" waitingTime="0.00" waitingCount="0" stopTime="0.00" timeLoss="27.34" rerouteNo="0" devices="tripinfo_veh133" vType="passenger" speedFactor="0.97" vaporized=""/>
    <tripinfo id="veh7" depart="5.00" departLane="-43546039#1_1" departPos="0.59" departSpeed="0.00" departDelay="0.66" arrival="220.00" arrivalLane="E6_1" arrivalPos="42.45" arrivalSpeed="13.97" duration="215.00" routeLength="2431.76" waitingTime="0.00" waitingCount="0" stopTime="0.00" timeLoss="42.43" rerouteNo="0" devices="tripinfo_veh7" vType="delivery" speedFactor="1.05" vaporized=""/>
    <tripinfo id="veh49" depart="31.00" departLane="-43546935#0_1" departPos="108.93" departSpeed="0.00" departDelay="0.62" arrival="220.00" arrivalLane="43546570#1_1" arrivalPos="76.67" arrivalSpeed="15.07" duration="189.00" routeLength="2193.15" waitingTime="7.00" waitingCount="2" stopTime="0.00" timeLoss="44.22" rerouteNo="0" devices="tripinfo_veh49" vType="passenger" speedFactor="1.12" vaporized=""/>
    <tripinfo id="veh22" depart="14.00" departLane="-43546105#3_1" departPos="29.49" departSpeed="0.00" departDelay="0.36" arrival="221.00" arrivalLane="40266908#1_1" arrivalPos="55.60" arrivalSpeed="8.75" duration="207.00" routeLength="1782.00" waitingTime="27.00" waitingCount="1" stopTime="0.00" timeLoss="58.85" rerouteNo="0" devices="tripinfo_veh22" vType="passenger" speedFactor="0.89" vaporized=""/>
    <tripinfo id="veh243" depart="151.00" departLane="43546053#2_1" departPos="184.23" departSpeed="0.00" departDelay="0.34" arrival="221.00" arrivalLane="48778527_1" arrivalPos="56.14" arrivalSpeed="12.82" duration="70.00" routeLength="782.67" waitingTime="0.00" waitingCount="0" stopTime="0.00" timeLoss="10.12" rerouteNo="0" devices="tripinfo_veh243" vType="passenger" speedFactor="0.98" vaporized=""/>
    <tripinfo id="veh162" depart="101.00" departLane="-994066252#0_0" departPos="9.56" departSpeed="0.00" departDelay="0.56" arrival="222.00" arrivalLane="-1054663939_1" arrivalPos="21.68" arrivalSpeed="8.63" duration="121.00" routeLength="1444.35" waitingTime="0.00" waitingCount="0" stopTime="0.00" timeLoss="17.17" rerouteNo="0" devices="tripinfo_veh162" vType="passenger" speedFactor="1.04" vaporized=""/>
    <tripinfo id="veh225" depart="140.00" departLane="-48778524#4_1" departPos="3.99" departSpeed="0.00" departDelay="0.50" arrival="223.00" arrivalLane="-43544197#4_1" arrivalPos="41.55" arrivalSpeed="11.02" duration="83.00" routeLength="787.71" waitingTime="0.00" waitingCount="0" stopTime="0.00" timeLoss="15.23" rerouteNo="0" devices="tripinfo_veh225" vType="passenger" speedFactor="0.88" vaporized=""/>
    <tripinfo id="veh154" depart="96.00" departLane="-43544202#2_1" departPos="31.43" departSpeed="0.00" departDelay="0.52" arrival="224.00" arrivalLane="43544001#1_1" arrivalPos="24.62" arrivalSpeed="13.04" duration="128.00" routeLength="1520.81" waitingTime="0.00" waitingCount="0" stopTime="0.00" timeLoss="31.50" rerouteNo="0" devices="tripinfo_veh154" vType="passenger" speedFactor="1.18" vaporized=""/>
    <tripinfo id="veh232" depart="144.00" departLane="-383582516_0" departPos="206.47" departSpeed="0.00" departDelay="0.16" arrival="224.00" arrivalLane="75628811#1_1" arrivalPos="166.06" arrivalSpeed="8.02" duration="80.00" routeLength="824.09" waitingTime="0.00" waitingCount="0" stopTime="0.00" timeLoss="10.99" rerouteNo="0" devices="tripinfo_veh232" vType="passenger" speedFactor="0.98" vaporized=""/>
    <tripinfo id="veh4" depart="3.00" departLane="40314583#1_1" departPos="50.88" departSpeed="0.00" departDelay="0.52" arrival="225.00" arrivalLane="48797765#0_1" arrivalPos="17.85" arrivalSpeed="11.38" duration="222.00" routeLength="2014.45" waitingTime="16.00" waitingCount="2" stopTime="0.00" timeLoss="61.95" rerouteNo="0" devices="tripinfo_veh4" vType="passenger" speedFactor="0.94" vaporized=""/>
    <tripinfo id="veh126" depart="79.00" departLane="-647610982#3_1" departPos="32.86" departSpeed="0.00" departDelay="0.88" arrival="225.00" arrivalLane="1136301818_1" arrivalPos="39.61" arrivalSpeed="12.43" duration="146.00" routeLength="1618.00" waitingTime="0.00" waitingCount="0" stopTime="0.00" timeLoss="26.16" rerouteNo="0" devices="tripinfo_veh126" vType="motorcycle" speedFactor="1.01" vaporized=""/>
    <tripinfo id="veh186" depart="116.00" departLane="-43544138#4_1" departPos="3.55" departSpeed="0.00" departDelay="0.68" arrival="227.00" arrivalLane="43573547#3_1" arrivalPos="51.38" arrivalSpeed="14.28" duration="111.00" routeLength="1231.15" waitingTime="0.00" waitingCount="0" stopTime="0.00" timeLoss="26.37" rerouteNo="0" devices="tripinfo_veh186" vType="passenger" speedFactor="1.09" vaporized=""/>
    <tripinfo id="veh199" depart="124.00" departLane="-43573547#7_1" departPos="21.07" departSpeed="0.00" departDelay="0.62" arrival="227.00" arrivalLane="-143207979#3_1" arrivalPos="38.67" arrivalSpeed="10.64" duration="103.00" routeLength="1015.20" waitingTime="1.00" waitingCount="1" stopTime="0.00" timeLoss="15.57" rerouteNo="0" devices="tripinfo_veh199" vType="passenger" speedFactor="0.85" vaporized=""/>
    <tripinfo id="veh280" depart="174.00" departLane="-984521611#1_0" departPos="13.23" departSpeed="0.00" departDelay="0.40" arrival="229.00" arrivalLane="-492965073#5_2" arrivalPos="154.22" arrivalSpeed="13.08" duration="55.00" routeLength="467.62" waitingTime="0.00" waitingCount="0" stopTime="0.00" timeLoss="6.97" rerouteNo="0" devices="tripinfo_veh280" vType="passenger" speedFactor="1.00" vaporized=""/>
    <tripinfo id="veh134" depart="84.00" departLane="1232511776#0_1" departPos="58.37" departSpeed="0.00" departDelay="0.92" arrival="230.00" arrivalLane="-48778525#0_1" arrivalPos="49.94" arrivalSpeed="10.30" duration="146.00" routeLength="1317.82" waitingTime="5.00" waitingCount="1" stopTime="0.00" timeLoss="35.62" rerouteNo="0" devices="tripinfo_veh134" vType="motorcycle" speedFactor="0.91" vaporized=""/>
    <tripinfo id="veh3" depart="2.00" departLane="43544001#7_1" departPos="26.92" departSpeed="0.00" departDelay="0.14" arrival="231.00" arrivalLane="1136119743#1_1" arrivalPos="27.12" arrivalSpeed="8.74" duration="229.00" routeLength="2611.35" waitingTime="12.00" waitingCount="1" stopTime="0.00" timeLoss="42.61" rerouteNo="0" devices="tripinfo_veh3" vType="passenger" speedFactor="1.08" vaporized=""/>
    <tripinfo id="veh36" depart="23.00" departLane="353939586#1_1" departPos="130.63" departSpeed="0.00" departDelay="0.68" arrival="232.00" arrivalLane="92198453#3_1" arrivalPos="0.20" arrivalSpeed="6.67" duration="209.00" routeLength="2476.95" waitingTime="0.00" waitingCount="0" stopTime="0.00" timeLoss="41.98" rerouteNo="0" devices="tripinfo_veh36" vType="passenger" speedFactor="1.09" vaporized=""/>
    <personinfo id="ped11" depart="55.00" type="DEFAULT_PEDTYPE" speedFactor="1.15" duration="178.00" waitingTime="0.00" timeLoss="17.02" traveltime="178.00">
        <walk depart="55.00" departPos="0.00" arrival="233.00" arrivalPos="97.62" duration="178.00" routeLength="257.93" timeLoss="17.02" maxSpeed="1.60"/>
    </personinfo>
    <tripinfo id="veh27" depart="17.00" departLane="-E10_1" departPos="3.20" departSpeed="0.00" departDelay="0.26" arrival="234.00" arrivalLane="-43544138#5_1" arrivalPos="39.45" arrivalSpeed="12.79" duration="217.00" routeLength="2543.87" waitingTime="0.00" waitingCount="0" stopTime="0.00" timeLoss="32.14" rerouteNo="0" devices="tripinfo_veh27" vType="motorcycle" speedFactor="1.02" vaporized=""/>
    <tripinfo id="veh12" depart="8.00" departLane="-40299276#0_1" departPos="6.63" departSpeed="0.00" departDelay="0.56" arrival="237.00" arrivalLane="352818096#1_0" arrivalPos="3.80" arrivalSpeed="12.23" duration="229.00" routeLength="2138.66" waitingTime="51.00" waitingCount="2" stopTime="0.00" timeLoss="77.61" rerouteNo="0" devices="tripinfo_veh12" vType="passenger" speedFactor="1.04" vaporized=""/>
    <tripinfo id="veh244" depart="152.00" departLane="-647998062_1" departPos="33.71" departSpeed="0.00" departDelay="0.72" arrival="238.00" arrivalLane="43544184#1_1" arrivalPos="0.22" arrivalSpeed="14.87" duration="86.00" routeLength="816.84" waitingTime="3.00" waitingCount="1" stopTime="0.00" timeLoss="30.71" rerouteNo="0" devices="tripinfo_veh244" vType="passenger" speedFactor="1.16" vaporized=""/>
    <tripinfo id="truck37" depart="22.00" departLane="33913538#0_1" departPos="12.10" departSpeed="0.00" departDelay="0.00" arrival="239.00" arrivalLane="-33913538#0_1" arrivalPos="152.84" arrivalSpeed="13.57" duration="217.00" routeLength="2252.76" waitingTime="19.00" waitingCount="2" stopTime="0.00" timeLoss="53.30" rerouteNo="0" devices="tripinfo_truck37" vType="truck" speedFactor="1.02" vaporized=""/>
    <tripinfo id="veh68" depart="43.00" departLane="-48736646#0_1" departPos="88.41" departSpeed="0.00" departDelay="0.84" arrival="240.00" arrivalLane="33909936#1_1" arrivalPos="134.25" arrivalSpeed="12.56" duration="197.00" routeLength="1804.21" waitingTime="35.00" waitingCount="3" stopTime="0.00" timeLoss="61.22" rerouteNo="0" devices="tripinfo_veh68" vType="passenger" speedFactor="0.98" vaporized=""/>
    <tripinfo id="veh21" depart="14.00" departLane="-92198451#0.58_1" departPos="4.35" departSpeed="0.00" departDelay="0.98" arrival="242.00" arrivalLane="383582516_0" arrivalPos="280.65" arrivalSpeed="5.61" duration="228.00" routeLength="2699.74" waitingTime="6.00" waitingCount="1" stopTime="0.00" timeLoss="28.32" rerouteNo="0" devices="tripinfo_veh21" vType="passenger" speedFactor="1.13" vaporized=""/>