<?xml version="1.0" encoding="UTF-8"?>

<!-- generated on 2025-06-12 12:32:29 by Eclipse SUMO sumo Version 1.22.0
<sumoConfiguration xmlns:xsi="http://www.w3.org/2001/XMLSchema-instance" xsi:noNamespaceSchemaLocation="http://sumo.dlr.de/xsd/sumoConfiguration.xsd">

    <input>
        <net-file value="osm.net.xml"/>
        <route-files value="full.rou.xml, ped.rou.xml, truck.rou.xml"/>
        <additional-files value="osm.poly.xml, vtypes.xml"/>
    </input>

    <output>
        <summary-output value="summary.xml"/>
        <tripinfo-output value="E:\licenta\oras-mediu\2025-06-05-11-45-23\baseline_outputs\tripinfo_baseline_ep13.xml"/>
    </output>

    <processing>
        <ignore-route-errors value="true"/>
        <tls.actuated.jam-threshold value="30"/>
    </processing>

    <routing>
        <device.rerouting.adaptation-steps value="18"/>
        <device.rerouting.adaptation-interval value="10"/>
    </routing>

    <report>
        <verbose value="true"/>
        <duration-log.statistics value="true"/>
        <no-step-log value="true"/>
    </report>

    <traci_server>
        <remote-port value="64510"/>
    </traci_server>

    <gui_only>
        <gui-settings-file value="osm.view.xml"/>
    </gui_only>

</sumoConfiguration>
-->

<tripinfos xmlns:xsi="http://www.w3.org/2001/XMLSchema-instance" xsi:noNamespaceSchemaLocation="http://sumo.dlr.de/xsd/tripinfo_file.xsd">
    <tripinfo id="veh21" depart="14.00" departLane="1250915721#0_1" departPos="3.61" departSpeed="0.00" departDelay="0.77" arrival="54.00" arrivalLane="222605084#6_0" arrivalPos="0.20" arrivalSpeed="5.04" duration="40.00" routeLength="211.88" waitingTime="0.00" waitingCount="0" stopTime="0.00" timeLoss="5.78" rerouteNo="0" devices="tripinfo_veh21" vType="passenger" speedFactor="1.13" vaporized=""/>
    <tripinfo id="veh8" depart="6.00" departLane="-43544197#2_1" departPos="24.00" departSpeed="0.00" departDelay="0.96" arrival="64.00" arrivalLane="-143207979#6_1" arrivalPos="223.43" arrivalSpeed="14.58" duration="58.00" routeLength="645.08" waitingTime="0.00" waitingCount="0" stopTime="0.00" timeLoss="14.77" rerouteNo="0" devices="tripinfo_veh8" vType="passenger" speedFactor="1.12" vaporized=""/>
    <personinfo id="ped5" depart="25.00" type="DEFAULT_PEDTYPE" speedFactor="0.91" duration="44.00" waitingTime="0.00" timeLoss="4.80" traveltime="44.00">
        <walk depart="25.00" departPos="0.00" arrival="69.00" arrivalPos="23.99" duration="44.00" routeLength="49.55" timeLoss="4.80" maxSpeed="1.26"/>
    </personinfo>
    <tripinfo id="veh53" depart="34.00" departLane="48778456#0_1" departPos="3.12" departSpeed="0.00" departDelay="0.61" arrival="73.00" arrivalLane="-647755347#0_1" arrivalPos="70.01" arrivalSpeed="11.95" duration="39.00" routeLength="321.69" waitingTime="0.00" waitingCount="0" stopTime="0.00" timeLoss="11.35" rerouteNo="0" devices="tripinfo_veh53" vType="passenger" speedFactor="0.95" vaporized=""/>
    <personinfo id="ped10" depart="50.00" type="DEFAULT_PEDTYPE" speedFactor="1.08" duration="40.00" waitingTime="0.00" timeLoss="4.26" traveltime="40.00">
        <walk depart="50.00" departPos="0.00" arrival="90.00" arrivalPos="31.41" duration="40.00" routeLength="53.72" timeLoss="4.26" maxSpeed="1.50"/>
    </personinfo>
    <tripinfo id="veh13" depart="9.00" departLane="-354252043_1" departPos="56.14" departSpeed="0.00" departDelay="0.81" arrival="90.00" arrivalLane="-48778505#2_1" arrivalPos="58.27" arrivalSpeed="12.89" duration="81.00" routeLength="838.68" waitingTime="0.00" waitingCount="0" stopTime="0.00" timeLoss="14.27" rerouteNo="0" devices="tripinfo_veh13" vType="delivery" speedFactor="0.97" vaporized=""/>
    <tripinfo id="veh12" depart="8.00" departLane="48778525#1_1" departPos="7.69" departSpeed="0.00" departDelay="0.44" arrival="97.00" arrivalLane="-43544001#11_1" arrivalPos="49.44" arrivalSpeed="13.63" duration="89.00" routeLength="819.35" waitingTime="0.00" waitingCount="0" stopTime="0.00" timeLoss="26.31" rerouteNo="0" devices="tripinfo_veh12" vType="passenger" speedFactor="1.04" vaporized=""/>
    <tripinfo id="veh23" depart="15.00" departLane="1250915722#0_1" departPos="39.05" departSpeed="0.00" departDelay="0.51" arrival="108.00" arrivalLane="-383582508#0_0" arrivalPos="10.60" arrivalSpeed="5.15" duration="93.00" routeLength="843.44" waitingTime="0.00" waitingCount="0" stopTime="0.00" timeLoss="11.09" rerouteNo="0" devices="tripinfo_veh23" vType="passenger" speedFactor="1.15" vaporized=""/>
    <tripinfo id="veh107" depart="68.00" departLane="-48778461#1_1" departPos="2.38" departSpeed="0.00" departDelay="0.59" arrival="114.00" arrivalLane="984521611#1_0" arrivalPos="22.34" arrivalSpeed="5.02" duration="46.00" routeLength="347.00" waitingTime="0.00" waitingCount="0" stopTime="0.00" timeLoss="12.51" rerouteNo="0" devices="tripinfo_veh107" vType="emergency" speedFactor="1.00" vaporized=""/>
    <tripinfo id="veh6" depart="4.00" departLane="48797766#1_1" departPos="23.50" departSpeed="0.00" departDelay="0.22" arrival="121.00" arrivalLane="-48736618_1" arrivalPos="45.60" arrivalSpeed="14.23" duration="117.00" routeLength="1328.18" waitingTime="0.00" waitingCount="0" stopTime="0.00" timeLoss="21.93" rerouteNo="0" devices="tripinfo_veh6" vType="delivery" speedFactor="1.05" vaporized=""/>
    <tripinfo id="veh17" depart="11.00" departLane="-353939570#9_1" departPos="11.60" departSpeed="0.00" departDelay="0.29" arrival="122.00" arrivalLane="-945794110_1" arrivalPos="52.39" arrivalSpeed="6.95" duration="111.00" routeLength="1013.48" waitingTime="0.00" waitingCount="0" stopTime="0.00" timeLoss="20.26" rerouteNo="0" devices="tripinfo_veh17" vType="passenger" speedFactor="0.89" vaporized=""/>
    <tripinfo id="veh27" depart="18.00" departLane="-43573573#1_1" departPos="2.35" departSpeed="0.00" departDelay="0.99" arrival="124.00" arrivalLane="-354259933#1_1" arrivalPos="31.84" arrivalSpeed="12.55" duration="106.00" routeLength="743.84" waitingTime="26.00" waitingCount="2" stopTime="0.00" timeLoss="47.09" rerouteNo="0" devices="tripinfo_veh27" vType="passenger" speedFactor="0.97" vaporized=""/>
    <tripinfo id="veh77" depart="49.00" departLane="-43546064#1_1" departPos="88.31" departSpeed="0.00" departDelay="0.49" arrival="128.00" arrivalLane="647262856_1" arrivalPos="411.78" arrivalSpeed="13.62" duration="79.00" routeLength="923.20" waitingTime="0.00" waitingCount="0" stopTime="0.00" timeLoss="13.01" rerouteNo="0" devices="tripinfo_veh77" vType="passenger" speedFactor="1.06" vaporized=""/>
    <tripinfo id="veh71" depart="45.00" departLane="-40236203#2_1" departPos="3.33" departSpeed="0.00" departDelay="0.27" arrival="129.00" arrivalLane="-859732803#0_0" arrivalPos="20.07" arrivalSpeed="4.36" duration="84.00" routeLength="540.34" waitingTime="17.00" waitingCount="1" stopTime="0.00" timeLoss="31.69" rerouteNo="0" devices="tripinfo_veh71" vType="passenger" speedFactor="0.86" vaporized=""/>
    <tripinfo id="veh94" depart="60.00" departLane="-43544197#1_1" departPos="37.28" departSpeed="0.00" departDelay="0.78" arrival="134.00" arrivalLane="43544184#1_1" arrivalPos="0.22" arrivalSpeed="10.19" duration="74.00" routeLength="719.60" waitingTime="0.00" waitingCount="0" stopTime="0.00" timeLoss="15.80" rerouteNo="0" devices="tripinfo_veh94" vType="motorcycle" speedFactor="0.94" vaporized=""/>
    <personinfo id="ped3" depart="15.00" type="DEFAULT_PEDTYPE" speedFactor="1.02" duration="124.00" waitingTime="0.00" timeLoss="13.23" traveltime="124.00">
        <walk depart="15.00" departPos="0.00" arrival="139.00" arrivalPos="9.43" duration="124.00" routeLength="157.61" timeLoss="13.23" maxSpeed="1.42"/>
    </personinfo>
    <tripinfo id="veh34" depart="22.00" departLane="E26_2" departPos="162.74" departSpeed="0.00" departDelay="0.58" arrival="139.00" arrivalLane="43546648#6_1" arrivalPos="186.87" arrivalSpeed="13.25" duration="117.00" routeLength="1309.89" waitingTime="0.00" waitingCount="0" stopTime="0.00" timeLoss="22.25" rerouteNo="0" devices="tripinfo_veh34" vType="passenger" speedFactor="1.04" vaporized=""/>
    <tripinfo id="veh16" depart="11.00" departLane="1135855912_1" departPos="71.84" departSpeed="0.00" departDelay="0.92" arrival="140.00" arrivalLane="-984521612#1_0" arrivalPos="29.21" arrivalSpeed="4.16" duration="129.00" routeLength="529.34" waitingTime="0.00" waitingCount="0" stopTime="0.00" timeLoss="10.05" rerouteNo="0" devices="tripinfo_veh16" vType="bicycle" speedFactor="0.80" vaporized=""/>
    <tripinfo id="veh100" depart="63.00" departLane="40330571#1_1" departPos="0.48" departSpeed="0.00" departDelay="0.00" arrival="143.00" arrivalLane="-353939570#2_1" arrivalPos="3.23" arrivalSpeed="14.60" duration="80.00" routeLength="1048.49" waitingTime="0.00" waitingCount="0" stopTime="0.00" timeLoss="11.51" rerouteNo="0" devices="tripinfo_veh100" vType="passenger" speedFactor="1.12" vaporized=""/>
    <tripinfo id="veh28" depart="18.00" departLane="-530103972_1" departPos="4.10" departSpeed="0.00" departDelay="0.36" arrival="144.00" arrivalLane="-92198453#3_1" arrivalPos="0.20" arrivalSpeed="13.95" duration="126.00" routeLength="988.66" waitingTime="15.00" waitingCount="1" stopTime="0.00" timeLoss="38.34" rerouteNo="0" devices="tripinfo_veh28" vType="motorcycle" speedFactor="1.02" vaporized=""/>
    <tripinfo id="veh32" depart="21.00" departLane="-353939570#4_1" departPos="169.89" departSpeed="0.00" departDelay="0.84" arrival="144.00" arrivalLane="492965073#0_2" arrivalPos="173.89" arrivalSpeed="14.29" duration="123.00" routeLength="1224.08" waitingTime="19.00" waitingCount="2" stopTime="0.00" timeLoss="36.02" rerouteNo="0" devices="tripinfo_veh32" vType="passenger" speedFactor="1.03" vaporized=""/>
    <tripinfo id="veh60" depart="38.00" departLane="-1054663943_1" departPos="0.30" departSpeed="0.00" departDelay="0.20" arrival="152.00" arrivalLane="-258551281_1" arrivalPos="67.94" arrivalSpeed="14.45" duration="114.00" routeLength="899.27" waitingTime="33.00" waitingCount="1" stopTime="0.00" timeLoss="50.45" rerouteNo="0" devices="tripinfo_veh60" vType="passenger" speedFactor="1.09" vaporized=""/>
    <tripinfo id="veh81" depart="52.00" departLane="-250295380#1_1" departPos="4.87" departSpeed="0.00" departDelay="0.97" arrival="152.00" arrivalLane="-222609002#4_1" arrivalPos="52.31" arrivalSpeed="13.68" duration="100.00" routeLength="1134.76" waitingTime="0.00" waitingCount="0" stopTime="0.00" timeLoss="17.79" rerouteNo="0" devices="tripinfo_veh81" vType="passenger" speedFactor="1.03" vaporized=""/>
    <tripinfo id="veh76" depart="49.00" departLane="-470210923#0_2" departPos="50.82" departSpeed="0.00" departDelay="1.12" arrival="153.00" arrivalLane="-859732802#0_0" arrivalPos="5.60" arrivalSpeed="4.66" duration="104.00" routeLength="991.20" waitingTime="7.00" waitingCount="1" stopTime="0.00" timeLoss="24.27" rerouteNo="0" devices="tripinfo_veh76" vType="delivery" speedFactor="0.98" vaporized=""/>
    <tripinfo id="veh84" depart="53.00" departLane="48778457#0_1" departPos="1.98" departSpeed="0.00" departDelay="0.08" arrival="158.00" arrivalLane="-40266910_1" arrivalPos="146.08" arrivalSpeed="16.87" duration="105.00" routeLength="1109.14" waitingTime="0.00" waitingCount="0" stopTime="0.00" timeLoss="36.10" rerouteNo="0" devices="tripinfo_veh84" vType="passenger" speedFactor="1.25" vaporized=""/>
    <tripinfo id="veh161" depart="102.00" departLane="40304754#3_1" departPos="19.95" departSpeed="0.00" departDelay="0.57" arrival="164.00" arrivalLane="40236203#0_1" arrivalPos="83.35" arrivalSpeed="10.52" duration="62.00" routeLength="558.03" waitingTime="0.00" waitingCount="0" stopTime="0.00" timeLoss="10.50" rerouteNo="0" devices="tripinfo_veh161" vType="passenger" speedFactor="0.83" vaporized=""/>
    <tripinfo id="veh47" depart="30.00" departLane="1136279381_1" departPos="33.96" departSpeed="0.00" departDelay="0.39" arrival="166.00" arrivalLane="48778453_1" arrivalPos="29.18" arrivalSpeed="11.52" duration="136.00" routeLength="1183.24" waitingTime="17.00" waitingCount="2" stopTime="0.00" timeLoss="44.16" rerouteNo="0" devices="tripinfo_veh47" vType="passenger" speedFactor="1.00" vaporized=""/>
    <tripinfo id="veh61" depart="39.00" departLane="-530103972_1" departPos="11.51" departSpeed="0.00" departDelay="0.57" arrival="166.00" arrivalLane="-401741889#0_1" arrivalPos="387.33" arrivalSpeed="12.10" duration="127.00" routeLength="1180.19" waitingTime="0.00" waitingCount="0" stopTime="0.00" timeLoss="14.77" rerouteNo="0" devices="tripinfo_veh61" vType="passenger" speedFactor="0.90" vaporized=""/>
    <tripinfo id="veh202" depart="128.00" departLane="43544001#2_1" departPos="14.73" departSpeed="0.00" departDelay="0.74" arrival="168.00" arrivalLane="647226815#0_1" arrivalPos="44.36" arrivalSpeed="13.95" duration="40.00" routeLength="449.91" waitingTime="0.00" waitingCount="0" stopTime="0.00" timeLoss="12.75" rerouteNo="0" devices="tripinfo_veh202" vType="passenger" speedFactor="1.26" vaporized=""/>
    <personinfo id="ped4" depart="20.00" type="DEFAULT_PEDTYPE" speedFactor="1.22" duration="151.00" waitingTime="0.00" timeLoss="15.49" traveltime="151.00">
        <walk depart="20.00" departPos="0.00" arrival="171.00" arrivalPos="96.61" duration="151.00" routeLength="230.50" timeLoss="15.49" maxSpeed="1.70"/>
    </personinfo>
    <tripinfo id="veh38" depart="24.00" departLane="-222605087#5_1" departPos="14.20" departSpeed="0.00" departDelay="0.06" arrival="176.00" arrivalLane="-40330557#2_1" arrivalPos="99.94" arrivalSpeed="12.06" duration="152.00" routeLength="1081.43" waitingTime="2.00" waitingCount="1" stopTime="0.00" timeLoss="26.19" rerouteNo="0" devices="tripinfo_veh38" vType="passenger" speedFactor="0.88" vaporized=""/>
    <tripinfo id="veh123" depart="78.00" departLane="-48778511_1" departPos="38.46" departSpeed="0.00" departDelay="0.51" arrival="177.00" arrivalLane="48778516_1" arrivalPos="193.31" arrivalSpeed="11.34" duration="99.00" routeLength="942.38" waitingTime="0.00" waitingCount="0" stopTime="0.00" timeLoss="18.65" rerouteNo="0" devices="tripinfo_veh123" vType="passenger" speedFactor="0.91" vaporized=""/>
    <tripinfo id="veh92" depart="58.00" departLane="-859734514#1_0" departPos="31.70" departSpeed="0.00" departDelay="0.04" arrival="178.00" arrivalLane="222605084#5_1" arrivalPos="9.96" arrivalSpeed="5.01" duration="120.00" routeLength="953.75" waitingTime="1.00" waitingCount="1" stopTime="0.00" timeLoss="18.14" rerouteNo="0" devices="tripinfo_veh92" vType="passenger" speedFactor="0.99" vaporized=""/>
    <tripinfo id="veh39" depart="25.00" departLane="401741889#1_1" departPos="50.61" departSpeed="0.00" departDelay="0.43" arrival="180.00" arrivalLane="48778500#1_1" arrivalPos="82.22" arrivalSpeed="13.95" duration="155.00" routeLength="1693.24" waitingTime="9.00" waitingCount="1" stopTime="0.00" timeLoss="37.82" rerouteNo="0" devices="tripinfo_veh39" vType="passenger" speedFactor="1.06" vaporized=""/>
    <tripinfo id="veh73" depart="46.00" departLane="-48736644_1" departPos="136.03" departSpeed="0.00" departDelay="0.01" arrival="181.00" arrivalLane="994066252#0_0" arrivalPos="11.89" arrivalSpeed="6.03" duration="135.00" routeLength="1339.16" waitingTime="19.00" waitingCount="2" stopTime="0.00" timeLoss="45.98" rerouteNo="0" devices="tripinfo_veh73" vType="passenger" speedFactor="1.14" vaporized=""/>
    <tripinfo id="veh3" depart="2.00" departLane="-996489799#1_0" departPos="31.10" departSpeed="0.00" departDelay="0.11" arrival="184.00" arrivalLane="-383582497_0" arrivalPos="31.03" arrivalSpeed="2.77" duration="182.00" routeLength="1546.07" waitingTime="34.00" waitingCount="2" stopTime="0.00" timeLoss="62.99" rerouteNo="0" devices="tripinfo_veh3" vType="passenger" speedFactor="1.08" vaporized=""/>
    <tripinfo id="veh40" depart="26.00" departLane="-48798094#0_1" departPos="467.86" departSpeed="0.00" departDelay="0.80" arrival="185.00" arrivalLane="48778427_1" arrivalPos="390.71" arrivalSpeed="15.95" duration="159.00" routeLength="1741.74" waitingTime="31.00" waitingCount="1" stopTime="0.00" timeLoss="51.01" rerouteNo="0" devices="tripinfo_veh40" vType="passenger" speedFactor="1.17" vaporized=""/>
    <tripinfo id="veh57" depart="36.00" departLane="-40330575#3_1" departPos="13.16" departSpeed="0.00" departDelay="0.09" arrival="187.00" arrivalLane="48736647#0_1" arrivalPos="51.73" arrivalSpeed="14.33" duration="151.00" routeLength="1453.08" waitingTime="13.00" waitingCount="2" stopTime="0.00" timeLoss="54.52" rerouteNo="0" devices="tripinfo_veh57" vType="passenger" speedFactor="1.12" vaporized=""/>
    <tripinfo id="veh128" depart="81.00" departLane="43544001#5_1" departPos="15.93" departSpeed="0.00" departDelay="0.36" arrival="187.00" arrivalLane="648082196_1" arrivalPos="93.22" arrivalSpeed="12.84" duration="106.00" routeLength="1086.65" waitingTime="4.00" waitingCount="1" stopTime="0.00" timeLoss="22.70" rerouteNo="0" devices="tripinfo_veh128" vType="passenger" speedFactor="0.97" vaporized=""/>
    <tripinfo id="veh64" depart="41.00" departLane="-48736646#0_1" departPos="3.52" departSpeed="0.00" departDelay="0.68" arrival="189.00" arrivalLane="-383582499#3_1" arrivalPos="71.68" arrivalSpeed="12.49" duration="148.00" routeLength="1757.28" waitingTime="0.00" waitingCount="0" stopTime="0.00" timeLoss="15.88" rerouteNo="0" devices="tripinfo_veh64" vType="passenger" speedFactor="0.98" vaporized=""/>
    <tripinfo id="veh37" depart="24.00" departLane="256555440#0_1" departPos="58.28" departSpeed="0.00" departDelay="0.69" arrival="193.00" arrivalLane="-92198452#1_1" arrivalPos="116.26" arrivalSpeed="13.10" duration="169.00" routeLength="1792.58" waitingTime="0.00" waitingCount="0" stopTime="0.00" timeLoss="28.76" rerouteNo="0" devices="tripinfo_veh37" vType="passenger" speedFactor="0.95" vaporized=""/>
    <tripinfo id="veh79" depart="50.00" departLane="48736667_1" departPos="30.41" departSpeed="0.00" departDelay="0.23" arrival="194.00" arrivalLane="43546449#2_1" arrivalPos="49.88" arrivalSpeed="14.27" duration="144.00" routeLength="1683.05" waitingTime="2.00" waitingCount="1" stopTime="0.00" timeLoss="27.67" rerouteNo="0" devices="tripinfo_veh79" vType="passenger" speedFactor="1.08" vaporized=""/>
    <tripinfo id="veh112" depart="71.00" departLane="-996486454#1_1" departPos="79.91" departSpeed="0.00" departDelay="0.44" arrival="197.00" arrivalLane="-43546064#1_1" arrivalPos="98.05" arrivalSpeed="14.78" duration="126.00" routeLength="1579.44" waitingTime="0.00" waitingCount="0" stopTime="0.00" timeLoss="16.57" rerouteNo="0" devices="tripinfo_veh112" vType="delivery" speedFactor="1.06" vaporized=""/>
    <tripinfo id="veh210" depart="133.00" departLane="258551283#1_1" departPos="2.31" departSpeed="0.00" departDelay="0.70" arrival="200.00" arrivalLane="43573573#0_1" arrivalPos="20.39" arrivalSpeed="9.59" duration="67.00" routeLength="651.70" waitingTime="0.00" waitingCount="0" stopTime="0.00" timeLoss="23.85" rerouteNo="0" devices="tripinfo_veh210" vType="passenger" speedFactor="1.13" vaporized=""/>
    <tripinfo id="veh35" depart="23.00" departLane="383582507_0" departPos="56.43" departSpeed="0.00" departDelay="0.95" arrival="204.00" arrivalLane="-48736613#1_1" arrivalPos="77.29" arrivalSpeed="13.18" duration="181.00" routeLength="1991.02" waitingTime="2.00" waitingCount="1" stopTime="0.00" timeLoss="28.27" rerouteNo="0" devices="tripinfo_veh35" vType="emergency" speedFactor="1.00" vaporized=""/>
    <tripinfo id="veh193" depart="122.00" departLane="-250295383#3_1" departPos="8.67" departSpeed="0.00" departDelay="0.41" arrival="206.00" arrivalLane="492965073#5_2" arrivalPos="154.20" arrivalSpeed="13.84" duration="84.00" routeLength="449.68" waitingTime="40.00" waitingCount="1" stopTime="0.00" timeLoss="50.65" rerouteNo="0" devices="tripinfo_veh193" vType="emergency" speedFactor="1.00" vaporized=""/>
    <tripinfo id="veh198" depart="125.00" departLane="-354259933#3_1" departPos="59.35" departSpeed="0.00" departDelay="0.26" arrival="211.00" arrivalLane="-1136119743#0_1" arrivalPos="24.46" arrivalSpeed="8.78" duration="86.00" routeLength="873.33" waitingTime="0.00" waitingCount="0" stopTime="0.00" timeLoss="14.75" rerouteNo="0" devices="tripinfo_veh198" vType="passenger" speedFactor="1.07" vaporized=""/>
    <tripinfo id="veh48" depart="31.00" departLane="-40306162#1_1" departPos="21.01" departSpeed="0.00" departDelay="0.76" arrival="212.00" arrivalLane="48778527_1" arrivalPos="56.14" arrivalSpeed="14.26" duration="181.00" routeLength="2290.99" waitingTime="0.00" waitingCount="0" stopTime="0.00" timeLoss="29.14" rerouteNo="0" devices="tripinfo_veh48" vType="passenger" speedFactor="1.12" vaporized=""/>
    <tripinfo id="veh133" depart="84.00" departLane="143207982#3_1" departPos="7.17" departSpeed="0.00" departDelay="0.21" arrival="215.00" arrivalLane="-383582853_0" arrivalPos="4.53" arrivalSpeed="5.13" duration="131.00" routeLength="805.90" waitingTime="44.00" waitingCount="1" stopTime="0.00" timeLoss="64.19" rerouteNo="0" devices="tripinfo_veh133" vType="passenger" speedFactor="0.98" vaporized=""/>
    <tripinfo id="veh36" depart="23.00" departLane="48736623_1" departPos="63.87" departSpeed="0.00" departDelay="0.32" arrival="223.00" arrivalLane="-40236228#0_1" arrivalPos="90.81" arrivalSpeed="11.34" duration="200.00" routeLength="2289.20" waitingTime="12.00" waitingCount="1" stopTime="0.00" timeLoss="44.95" rerouteNo="0" devices="tripinfo_veh36" vType="passenger" speedFactor="1.09" vaporized=""/>
    <tripinfo id="veh110" depart="70.00" departLane="48778441#3_1" departPos="79.25" departSpeed="0.00" departDelay="0.70" arrival="223.00" arrivalLane="48778503#1_1" arrivalPos="56.23" arrivalSpeed="14.50" duration="153.00" routeLength="1562.31" waitingTime="28.00" waitingCount="1" stopTime="0.00" timeLoss="49.04" rerouteNo="0" devices="tripinfo_veh110" vType="passenger" speedFactor="1.11" vaporized=""/>
    <personinfo id="ped17" depart="85.00" type="DEFAULT_PEDTYPE" speedFactor="1.06" duration="139.00" waitingTime="0.00" timeLoss="13.26" traveltime="139.00">
        <walk depart="85.00" departPos="0.00" arrival="224.00" arrivalPos="8.83" duration="139.00" routeLength="185.37" timeLoss="13.26" maxSpeed="1.47"/>
    </personinfo>
    <tripinfo id="veh113" depart="72.00" departLane="43544202#1_1" departPos="81.05" departSpeed="0.00" departDelay="0.81" arrival="225.00" arrivalLane="-250295380#0_1" arrivalPos="168.50" arrivalSpeed="16.15" duration="153.00" routeLength="2134.39" waitingTime="0.00" waitingCount="0" stopTime="0.00" timeLoss="22.49" rerouteNo="0" devices="tripinfo_veh113" vType="passenger" speedFactor="1.21" vaporized=""/>
    <tripinfo id="veh239" depart="151.00" departLane="48778475#1_1" departPos="8.62" departSpeed="0.00" departDelay="0.43" arrival="226.00" arrivalLane="40306149_1" arrivalPos="62.47" arrivalSpeed="13.46" duration="75.00" routeLength="755.42" waitingTime="0.00" waitingCount="0" stopTime="0.00" timeLoss="14.89" rerouteNo="0" devices="tripinfo_veh239" vType="passenger" speedFactor="0.98" vaporized=""/>
    <tripinfo id="veh149" depart="94.00" departLane="-859732801#1_1" departPos="13.83" departSpeed="0.00" departDelay="0.13" arrival="227.00" arrivalLane="1250915723#1_1" arrivalPos="57.17" arrivalSpeed="5.01" duration="133.00" routeLength="986.19" waitingTime="3.00" waitingCount="2" stopTime="0.00" timeLoss="27.57" rerouteNo="0" devices="tripinfo_veh149" vType="passenger" speedFactor="0.91" vaporized=""/>
    <tripinfo id="veh185" depart="117.00" departLane="43544197#1_1" departPos="2.29" departSpeed="0.00" departDelay="0.45" arrival="227.00" arrivalLane="-48778519_1" arrivalPos="91.88" arrivalSpeed="11.72" duration="110.00" routeLength="1141.81" waitingTime="0.00" waitingCount="0" stopTime="0.00" timeLoss="17.40" rerouteNo="0" devices="tripinfo_veh185" vType="delivery" speedFactor="0.93" vaporized=""/>
    <personinfo id="ped6" depart="30.00" type="DEFAULT_PEDTYPE" speedFactor="1.04" duration="200.00" waitingTime="0.00" timeLoss="27.89" traveltime="200.00">
        <walk depart="30.00" departPos="0.00" arrival="230.00" arrivalPos="1.97" duration="200.00" routeLength="248.99" timeLoss="27.89" maxSpeed="1.45"/>
    </personinfo>
    <tripinfo id="veh41" depart="26.00" departLane="-43544202#2_1" departPos="63.58" departSpeed="0.00" departDelay="0.17" arrival="231.00" arrivalLane="40345956#1_1" arrivalPos="78.47" arrivalSpeed="14.09" duration="205.00" routeLength="2264.98" waitingTime="3.00" waitingCount="1" stopTime="0.00" timeLoss="43.65" rerouteNo="0" devices="tripinfo_veh41" vType="passenger" speedFactor="1.05" vaporized=""/>
    <tripinfo id="veh131" depart="83.00" departLane="43544184#3_1" departPos="56.56" departSpeed="0.00" departDelay="0.47" arrival="231.00" arrivalLane="48736647#1_1" arrivalPos="90.38" arrivalSpeed="14.42" duration="148.00" routeLength="1835.71" waitingTime="0.00" waitingCount="0" stopTime="0.00" timeLoss="27.30" rerouteNo="0" devices="tripinfo_veh131" vType="passenger" speedFactor="1.13" vaporized=""/>
    <tripinfo id="veh189" depart="120.00" departLane="40345956#0_1" departPos="19.87" departSpeed="0.00" departDelay="0.93" arrival="232.00" arrivalLane="48778498#2_1" arrivalPos="98.03" arrivalSpeed="13.18" duration="112.00" routeLength="1043.83" waitingTime="15.00" waitingCount="2" stopTime="0.00" timeLoss="42.22" rerouteNo="0" devices="tripinfo_veh189" vType="motorcycle" speedFactor="1.14" vaporized=""/>
    <tripinfo id="veh151" depart="96.00" departLane="-40269009#2_1" departPos="39.69" departSpeed="0.00" departDelay="0.87" arrival="233.00" arrivalLane="-43546648#4_1" arrivalPos="81.62" arrivalSpeed="16.01" duration="137.00" routeLength="1322.81" waitingTime="5.00" waitingCount="1" stopTime="0.00" timeLoss="48.66" rerouteNo="0" devices="tripinfo_veh151" vType="passenger" speedFactor="1.18" vaporized=""/>
    <tripinfo id="veh19" depart="12.00" departLane="984521612#0_0" departPos="1.61" departSpeed="0.00" departDelay="0.03" arrival="236.00" arrivalLane="48778496_1" arrivalPos="81.85" arrivalSpeed="7.02" duration="224.00" routeLength="1559.13" waitingTime="41.00" waitingCount="2" stopTime="0.00" timeLoss="76.65" rerouteNo="0" devices="tripinfo_veh19" vType="passenger" speedFactor="0.87" vaporized=""/>
    <tripinfo id="veh269" depart="170.00" departLane="-996489799#1_0" departPos="22.96" departSpeed="0.00" departDelay="0.53" arrival="236.00" arrivalLane="40236144#0_1" arrivalPos="70.01" arrivalSpeed="12.95" duration="66.00" routeLength="681.08" waitingTime="0.00" waitingCount="0" stopTime="0.00" timeLoss="11.25" rerouteNo="0" devices="tripinfo_veh269" vType="passenger" speedFactor="1.02" vaporized=""/>
    <tripinfo id="veh4" depart="3.00" departLane="48778474#1_1" departPos="127.31" departSpeed="0.00" departDelay="0.48" arrival="238.00" arrivalLane="-143207982#6_1" arrivalPos="10.44" arrivalSpeed="8.64" duration="235.00" routeLength="2143.81" waitingTime="22.00" waitingCount="2" stopTime="0.00" timeLoss="55.81" rerouteNo="0" devices="tripinfo_veh4" vType="passenger" speedFactor="0.94" vaporized=""/>
    <tripinfo id="veh229" depart="145.00" departLane="43546064#2_1" departPos="89.87" departSpeed="0.00" departDelay="0.73" arrival="238.00" arrivalLane="-43546105#0_1" arrivalPos="198.99" arrivalSpeed="14.18" duration="93.00" routeLength="1105.43" waitingTime="0.00" waitingCount="0" stopTime="0.00" timeLoss="13.91" rerouteNo="0" devices="tripinfo_veh229" vType="passenger" speedFactor="1.03" vaporized=""/>
    <tripinfo id="veh296" depart="187.00" departLane="43544001#7_1" departPos="27.77" departSpeed="0.00" departDelay="0.52" arrival="239.00" arrivalLane="43546935#2_1" arrivalPos="44.28" arrivalSpeed="13.21" duration="52.00" routeLength="556.04" waitingTime="0.00" waitingCount="0" stopTime="0.00" timeLoss="8.94" rerouteNo="0" devices="tripinfo_veh296" vType="delivery" speedFactor="0.97" vaporized=""/>
    <tripinfo id="veh170" depart="108.00" departLane="-492965073#5_2" departPos="4.61" departSpeed="0.00" departDelay="0.90" arrival="240.00" arrivalLane="-273835686#1_1" arrivalPos="75.58" arrivalSpeed="13.82" duration="132.00" routeLength="1063.40" waitingTime="16.00" waitingCount="2" stopTime="0.00" timeLoss="51.50" rerouteNo="0" devices="tripinfo_veh170" vType="delivery" speedFactor="1.03" vaporized=""/>
    <tripinfo id="veh49" depart="31.00" departLane="-984508803_0" departPos="19.06" departSpeed="0.00" departDelay="0.13" arrival="242.00" arrivalLane="40269009#2_1" arrivalPos="65.05" arrivalSpeed="5.26" duration="211.00" routeLength="1021.51" waitingTime="8.00" waitingCount="1" stopTime="0.00" timeLoss="26.20" rerouteNo="0" devices="tripinfo_veh49" vType="bicycle" speedFactor="1.00" vaporized=""/>
    <tripinfo id="veh98" depart="62.00" departLane="-859728207_0" departPos="0.23" departSpeed="0.00" departDelay="0.26" arrival="243.00" arrivalLane="-40265775#0_1" arrivalPos="76.55" arrivalSpeed="13.57" duration="181.00" routeLength="1690.15" waitingTime="12.00" waitingCount="1" stopTime="0.00" timeLoss="43.52" rerouteNo="0" devices="tripinfo_veh98" vType="passenger" speedFactor="1.03" vaporized=""/>
    <tripinfo id="veh99" depart="63.00" departLane="-40330592_1" departPos="111.61" departSpeed="0.00" departDelay="0.63" arrival="244.00" arrivalLane="48736645_1" arrivalPos="132.12" arrivalSpeed="13.20" duration="181.00" routeLength="1691.47" waitingTime="21.00" waitingCount="2" stopTime="0.00" timeLoss="54.18" rerouteNo="0" devices="tripinfo_veh99" vType="passenger" speedFactor="1.00" vaporized=""/>
    <tripinfo id="veh87" depart="55.00" departLane="984521612#0_0" departPos="4.85" departSpeed="0.00" departDelay="0.19" arrival="246.00" arrivalLane="-43546039#3_1" arrivalPos="47.87" arrivalSpeed="13.98" duration="191.00" routeLength="1753.92" waitingTime="18.00" waitingCount="1" stopTime="0.00" timeLoss="56.44" rerouteNo="0" devices="tripinfo_veh87" vType="delivery" speedFactor="1.01" vaporized=""/>