<?xml version="1.0" encoding="UTF-8"?>

<!-- generated on 2025-06-12 12:30:48 by Eclipse SUMO sumo Version 1.22.0
<sumoConfiguration xmlns:xsi="http://www.w3.org/2001/XMLSchema-instance" xsi:noNamespaceSchemaLocation="http://sumo.dlr.de/xsd/sumoConfiguration.xsd">

    <input>
        <net-file value="osm.net.xml"/>
        <route-files value="full.rou.xml, ped.rou.xml, truck.rou.xml"/>
        <additional-files value="osm.poly.xml, vtypes.xml"/>
    </input>

    <output>
        <summary-output value="summary.xml"/>
        <tripinfo-output value="E:\licenta\oras-mediu\2025-06-05-11-45-23\baseline_outputs\tripinfo_baseline_ep4.xml"/>
    </output>

    <processing>
        <ignore-route-errors value="true"/>
        <tls.actuated.jam-threshold value="30"/>
    </processing>

    <routing>
        <device.rerouting.adaptation-steps value="18"/>
        <device.rerouting.adaptation-interval value="10"/>
    </routing>

    <report>
        <verbose value="true"/>
        <duration-log.statistics value="true"/>
        <no-step-log value="true"/>
    </report>

    <traci_server>
        <remote-port value="64459"/>
    </traci_server>

    <gui_only>
        <gui-settings-file value="osm.view.xml"/>
    </gui_only>

</sumoConfiguration>
-->

<tripinfos xmlns:xsi="http://www.w3.org/2001/XMLSchema-instance" xsi:noNamespaceSchemaLocation="http://sumo.dlr.de/xsd/tripinfo_file.xsd">
    <tripinfo id="veh29" depart="15.00" departLane="-996486454#0_1" departPos="19.79" departSpeed="0.00" departDelay="0.79" arrival="68.00" arrivalLane="-43544588#1_1" arrivalPos="38.29" arrivalSpeed="13.90" duration="53.00" routeLength="518.66" waitingTime="0.00" waitingCount="0" stopTime="0.00" timeLoss="12.87" rerouteNo="0" devices="tripinfo_veh29" vType="motorcycle" speedFactor="1.02" vaporized=""/>
    <tripinfo id="veh108" depart="53.00" departLane="-48778449#0_1" departPos="9.24" departSpeed="0.00" departDelay="0.08" arrival="77.00" arrivalLane="-1135854143_1" arrivalPos="57.62" arrivalSpeed="7.44" duration="24.00" routeLength="195.63" waitingTime="0.00" waitingCount="0" stopTime="0.00" timeLoss="5.94" rerouteNo="0" devices="tripinfo_veh108" vType="passenger" speedFactor="1.04" vaporized=""/>
    <tripinfo id="veh6" depart="3.00" departLane="-43544588#0_1" departPos="126.17" departSpeed="0.00" departDelay="0.06" arrival="87.00" arrivalLane="-43544197#8_1" arrivalPos="132.21" arrivalSpeed="12.14" duration="84.00" routeLength="817.08" waitingTime="0.00" waitingCount="0" stopTime="0.00" timeLoss="16.39" rerouteNo="0" devices="tripinfo_veh6" vType="passenger" speedFactor="0.94" vaporized=""/>
    <personinfo id="ped16" depart="80.00" type="DEFAULT_PEDTYPE" speedFactor="0.93" duration="20.00" waitingTime="0.00" timeLoss="2.47" traveltime="20.00">
        <walk depart="80.00" departPos="0.00" arrival="100.00" arrivalPos="9.25" duration="20.00" routeLength="22.58" timeLoss="2.47" maxSpeed="1.29"/>
    </personinfo>
    <tripinfo id="veh71" depart="35.00" departLane="-383582853_0" departPos="3.40" departSpeed="0.00" departDelay="0.21" arrival="100.00" arrivalLane="48736621#2_1" arrivalPos="13.16" arrivalSpeed="12.10" duration="65.00" routeLength="510.31" waitingTime="0.00" waitingCount="0" stopTime="0.00" timeLoss="15.45" rerouteNo="0" devices="tripinfo_veh71" vType="motorcycle" speedFactor="0.94" vaporized=""/>
    <tripinfo id="veh99" depart="49.00" departLane="-48797765#1_1" departPos="17.49" departSpeed="0.00" departDelay="0.49" arrival="103.00" arrivalLane="984521611#1_0" arrivalPos="22.34" arrivalSpeed="4.85" duration="54.00" routeLength="399.13" waitingTime="0.00" waitingCount="0" stopTime="0.00" timeLoss="15.65" rerouteNo="0" devices="tripinfo_veh99" vType="passenger" speedFactor="1.03" vaporized=""/>
    <tripinfo id="veh19" depart="10.00" departLane="48778508#0_1" departPos="0.37" departSpeed="0.00" departDelay="0.69" arrival="126.00" arrivalLane="-48778514#1_1" arrivalPos="255.62" arrivalSpeed="12.34" duration="116.00" routeLength="1216.21" waitingTime="0.00" waitingCount="0" stopTime="0.00" timeLoss="14.76" rerouteNo="0" devices="tripinfo_veh19" vType="passenger" speedFactor="0.89" vaporized=""/>
    <tripinfo id="veh116" depart="57.00" departLane="48778431#5_2" departPos="56.09" departSpeed="0.00" departDelay="0.16" arrival="129.00" arrivalLane="-43544179#11_1" arrivalPos="85.20" arrivalSpeed="14.73" duration="72.00" routeLength="818.06" waitingTime="0.00" waitingCount="0" stopTime="0.00" timeLoss="14.10" rerouteNo="0" devices="tripinfo_veh116" vType="delivery" speedFactor="1.06" vaporized=""/>
    <tripinfo id="veh26" depart="13.00" departLane="143207982#4_1" departPos="4.21" departSpeed="0.00" departDelay="0.26" arrival="130.00" arrivalLane="E37_1" arrivalPos="64.97" arrivalSpeed="15.40" duration="117.00" routeLength="1327.43" waitingTime="6.00" waitingCount="1" stopTime="0.00" timeLoss="27.71" rerouteNo="0" devices="tripinfo_veh26" vType="passenger" speedFactor="1.12" vaporized=""/>
    <tripinfo id="veh43" depart="22.00" departLane="273835686#0_1" departPos="32.12" departSpeed="0.00" departDelay="0.93" arrival="140.00" arrivalLane="48736650#2_1" arrivalPos="16.21" arrivalSpeed="12.13" duration="118.00" routeLength="982.09" waitingTime="0.00" waitingCount="0" stopTime="0.00" timeLoss="27.02" rerouteNo="0" devices="tripinfo_veh43" vType="motorcycle" speedFactor="1.00" vaporized=""/>
    <tripinfo id="veh76" depart="38.00" departLane="492965073#6_1" departPos="0.85" departSpeed="0.00" departDelay="0.76" arrival="140.00" arrivalLane="40236153#0_1" arrivalPos="49.85" arrivalSpeed="11.83" duration="102.00" routeLength="868.15" waitingTime="16.00" waitingCount="1" stopTime="0.00" timeLoss="30.95" rerouteNo="0" devices="tripinfo_veh76" vType="passenger" speedFactor="0.91" vaporized=""/>
    <tripinfo id="veh136" depart="67.00" departLane="-671642291_1" departPos="16.58" departSpeed="0.00" departDelay="0.36" arrival="140.00" arrivalLane="48778511_1" arrivalPos="75.86" arrivalSpeed="12.22" duration="73.00" routeLength="701.71" waitingTime="0.00" waitingCount="0" stopTime="0.00" timeLoss="17.42" rerouteNo="0" devices="tripinfo_veh136" vType="passenger" speedFactor="0.97" vaporized=""/>
    <tripinfo id="veh239" depart="118.00" departLane="43573573#3_1" departPos="62.09" departSpeed="0.00" departDelay="0.89" arrival="142.00" arrivalLane="48778515_1" arrivalPos="19.64" arrivalSpeed="7.27" duration="24.00" routeLength="214.52" waitingTime="0.00" waitingCount="0" stopTime="0.00" timeLoss="5.95" rerouteNo="0" devices="tripinfo_veh239" vType="delivery" speedFactor="1.01" vaporized=""/>
    <tripinfo id="veh23" depart="12.00" departLane="-48736647#0_1" departPos="21.00" departSpeed="0.00" departDelay="0.73" arrival="144.00" arrivalLane="-383582511#1_0" arrivalPos="6.21" arrivalSpeed="2.19" duration="132.00" routeLength="1708.06" waitingTime="0.00" waitingCount="0" stopTime="0.00" timeLoss="17.95" rerouteNo="0" devices="tripinfo_veh23" vType="passenger" speedFactor="1.13" vaporized=""/>
    <tripinfo id="veh206" depart="101.00" departLane="1135772296#0_0" departPos="21.58" departSpeed="0.00" departDelay="0.06" arrival="144.00" arrivalLane="48797771#2_1" arrivalPos="26.21" arrivalSpeed="14.79" duration="43.00" routeLength="391.08" waitingTime="0.00" waitingCount="0" stopTime="0.00" timeLoss="12.81" rerouteNo="0" devices="tripinfo_veh206" vType="passenger" speedFactor="1.07" vaporized=""/>
    <tripinfo id="veh63" depart="31.00" departLane="33909936#1_1" departPos="113.26" departSpeed="0.00" departDelay="0.13" arrival="145.00" arrivalLane="40330557#3_1" arrivalPos="31.45" arrivalSpeed="14.40" duration="114.00" routeLength="1372.65" waitingTime="0.00" waitingCount="0" stopTime="0.00" timeLoss="19.57" rerouteNo="0" devices="tripinfo_veh63" vType="passenger" speedFactor="1.09" vaporized=""/>
    <tripinfo id="veh91" depart="45.00" departLane="40345930_1" departPos="7.08" departSpeed="0.00" departDelay="0.41" arrival="146.00" arrivalLane="-222605084#8_1" arrivalPos="2.30" arrivalSpeed="4.72" duration="101.00" routeLength="843.79" waitingTime="0.00" waitingCount="0" stopTime="0.00" timeLoss="17.08" rerouteNo="0" devices="tripinfo_veh91" vType="delivery" speedFactor="1.01" vaporized=""/>
    <tripinfo id="veh176" depart="87.00" departLane="-250295383#6_1" departPos="13.07" departSpeed="0.00" departDelay="0.76" arrival="147.00" arrivalLane="-492965073#5_1" arrivalPos="154.22" arrivalSpeed="9.89" duration="60.00" routeLength="481.71" waitingTime="1.00" waitingCount="1" stopTime="0.00" timeLoss="14.06" rerouteNo="0" devices="tripinfo_veh176" vType="passenger" speedFactor="0.80" vaporized=""/>
    <tripinfo id="veh24" depart="12.00" departLane="-43544624#1_1" departPos="90.34" departSpeed="0.00" departDelay="0.24" arrival="149.00" arrivalLane="40305706#0_1" arrivalPos="32.26" arrivalSpeed="11.76" duration="137.00" routeLength="1470.50" waitingTime="0.00" waitingCount="0" stopTime="0.00" timeLoss="17.14" rerouteNo="0" devices="tripinfo_veh24" vType="passenger" speedFactor="0.89" vaporized=""/>
    <tripinfo id="veh12" depart="6.00" departLane="43546105#2_1" departPos="0.66" departSpeed="0.00" departDelay="0.12" arrival="150.00" arrivalLane="-43545645#1_1" arrivalPos="98.79" arrivalSpeed="4.88" duration="144.00" routeLength="655.70" waitingTime="1.00" waitingCount="1" stopTime="0.00" timeLoss="15.99" rerouteNo="0" devices="tripinfo_veh12" vType="bicycle" speedFactor="0.93" vaporized=""/>
    <tripinfo id="veh33" depart="17.00" departLane="43573547#5_1" departPos="3.79" departSpeed="0.00" departDelay="0.83" arrival="150.00" arrivalLane="273835688_1" arrivalPos="176.77" arrivalSpeed="13.19" duration="133.00" routeLength="1517.92" waitingTime="0.00" waitingCount="0" stopTime="0.00" timeLoss="22.14" rerouteNo="0" devices="tripinfo_veh33" vType="passenger" speedFactor="1.03" vaporized=""/>
    <tripinfo id="veh21" depart="11.00" departLane="-48778476_1" departPos="3.04" departSpeed="0.00" departDelay="0.71" arrival="151.00" arrivalLane="43573547#6_1" arrivalPos="56.24" arrivalSpeed="11.90" duration="140.00" routeLength="1441.79" waitingTime="0.00" waitingCount="0" stopTime="0.00" timeLoss="17.97" rerouteNo="0" devices="tripinfo_veh21" vType="passenger" speedFactor="0.87" vaporized=""/>
    <tripinfo id="veh208" depart="102.00" departLane="40334245#2_1" departPos="1.60" departSpeed="0.00" departDelay="0.08" arrival="153.00" arrivalLane="222605086_1" arrivalPos="27.07" arrivalSpeed="4.57" duration="51.00" routeLength="540.92" waitingTime="0.00" waitingCount="0" stopTime="0.00" timeLoss="6.83" rerouteNo="0" devices="tripinfo_veh208" vType="delivery" speedFactor="0.98" vaporized=""/>
    <tripinfo id="veh127" depart="63.00" departLane="-48736650#2_1" departPos="9.25" departSpeed="0.00" departDelay="0.77" arrival="158.00" arrivalLane="48736607#0_1" arrivalPos="36.67" arrivalSpeed="13.99" duration="95.00" routeLength="647.16" waitingTime="14.00" waitingCount="2" stopTime="0.00" timeLoss="37.86" rerouteNo="0" devices="tripinfo_veh127" vType="passenger" speedFactor="1.18" vaporized=""/>
    <tripinfo id="veh31" depart="16.00" departLane="-40265775#0_1" departPos="49.12" departSpeed="0.00" departDelay="0.81" arrival="160.00" arrivalLane="43544001#10_1" arrivalPos="37.76" arrivalSpeed="14.90" duration="144.00" routeLength="1823.60" waitingTime="0.00" waitingCount="0" stopTime="0.00" timeLoss="22.55" rerouteNo="0" devices="tripinfo_veh31" vType="passenger" speedFactor="1.10" vaporized=""/>
    <tripinfo id="veh275" depart="135.00" departLane="-1250915724#2_1" departPos="21.31" departSpeed="0.00" departDelay="0.25" arrival="164.00" arrivalLane="222605084#2_1" arrivalPos="1.52" arrivalSpeed="5.08" duration="29.00" routeLength="115.69" waitingTime="0.00" waitingCount="0" stopTime="0.00" timeLoss="8.23" rerouteNo="0" devices="tripinfo_veh275" vType="passenger" speedFactor="1.00" vaporized=""/>
    <tripinfo id="veh95" depart="47.00" departLane="48736607#1_1" departPos="28.95" departSpeed="0.00" departDelay="0.45" arrival="165.00" arrivalLane="40299264#2_1" arrivalPos="39.63" arrivalSpeed="14.96" duration="118.00" routeLength="1270.30" waitingTime="2.00" waitingCount="1" stopTime="0.00" timeLoss="31.19" rerouteNo="0" devices="tripinfo_veh95" vType="passenger" speedFactor="1.13" vaporized=""/>
    <tripinfo id="veh7" depart="4.00" departLane="43544138#4_1" departPos="24.62" departSpeed="0.00" departDelay="0.57" arrival="166.00" arrivalLane="945794109_1" arrivalPos="21.82" arrivalSpeed="7.66" duration="162.00" routeLength="1453.60" waitingTime="27.00" waitingCount="1" stopTime="0.00" timeLoss="53.93" rerouteNo="0" devices="tripinfo_veh7" vType="passenger" speedFactor="1.02" vaporized=""/>
    <tripinfo id="veh202" depart="99.00" departLane="-492965073#10_1" departPos="14.08" departSpeed="0.00" departDelay="0.02" arrival="168.00" arrivalLane="-40314853#3_1" arrivalPos="25.30" arrivalSpeed="11.60" duration="69.00" routeLength="727.94" waitingTime="5.00" waitingCount="1" stopTime="0.00" timeLoss="20.33" rerouteNo="0" devices="tripinfo_veh202" vType="passenger" speedFactor="1.10" vaporized=""/>
    <tripinfo id="veh192" depart="95.00" departLane="-304695350#2_1" departPos="1.03" departSpeed="0.00" departDelay="0.92" arrival="169.00" arrivalLane="492965073#9_1" arrivalPos="76.43" arrivalSpeed="12.40" duration="74.00" routeLength="642.68" waitingTime="0.00" waitingCount="0" stopTime="0.00" timeLoss="10.89" rerouteNo="0" devices="tripinfo_veh192" vType="delivery" speedFactor="0.93" vaporized=""/>
    <tripinfo id="veh2" depart="1.00" departLane="40236144#2_1" departPos="2.35" departSpeed="0.00" departDelay="0.02" arrival="171.00" arrivalLane="-43544001#5_1" arrivalPos="33.15" arrivalSpeed="14.42" duration="170.00" routeLength="2080.19" waitingTime="1.00" waitingCount="1" stopTime="0.00" timeLoss="28.05" rerouteNo="0" devices="tripinfo_veh2" vType="passenger" speedFactor="1.08" vaporized=""/>
    <tripinfo id="veh115" depart="57.00" departLane="176279225#4_1" departPos="65.75" departSpeed="0.00" departDelay="0.65" arrival="173.00" arrivalLane="48778478#1_1" arrivalPos="66.33" arrivalSpeed="13.92" duration="116.00" routeLength="1100.31" waitingTime="3.00" waitingCount="1" stopTime="0.00" timeLoss="31.63" rerouteNo="0" devices="tripinfo_veh115" vType="delivery" speedFactor="1.01" vaporized=""/>
    <tripinfo id="veh28" depart="14.00" departLane="-1250915722#5_1" departPos="33.96" departSpeed="0.00" departDelay="0.28" arrival="174.00" arrivalLane="-48778493#1_1" arrivalPos="26.41" arrivalSpeed="12.26" duration="160.00" routeLength="1165.47" waitingTime="9.00" waitingCount="2" stopTime="0.00" timeLoss="40.71" rerouteNo="0" devices="tripinfo_veh28" vType="passenger" speedFactor="0.97" vaporized=""/>
    <tripinfo id="veh325" depart="160.00" departLane="-530103972_1" departPos="45.96" departSpeed="0.00" departDelay="0.75" arrival="175.00" arrivalLane="-250295383#6_1" arrivalPos="25.71" arrivalSpeed="11.45" duration="15.00" routeLength="61.95" waitingTime="0.00" waitingCount="0" stopTime="0.00" timeLoss="3.72" rerouteNo="0" devices="tripinfo_veh325" vType="passenger" speedFactor="0.85" vaporized=""/>
    <tripinfo id="veh61" depart="30.00" departLane="-1136283379#1_1" departPos="3.54" departSpeed="0.00" departDelay="0.11" arrival="180.00" arrivalLane="-33909936#0_1" arrivalPos="22.20" arrivalSpeed="10.48" duration="150.00" routeLength="933.76" waitingTime="57.00" waitingCount="2" stopTime="0.00" timeLoss="77.73" rerouteNo="0" devices="tripinfo_veh61" vType="passenger" speedFactor="1.03" vaporized=""/>
    <tripinfo id="veh87" depart="43.00" departLane="-48778508#2_1" departPos="0.31" departSpeed="0.00" departDelay="0.37" arrival="180.00" arrivalLane="-383582518#1_0" arrivalPos="15.40" arrivalSpeed="5.08" duration="137.00" routeLength="1416.72" waitingTime="0.00" waitingCount="0" stopTime="0.00" timeLoss="24.43" rerouteNo="0" devices="tripinfo_veh87" vType="passenger" speedFactor="0.98" vaporized=""/>
    <tripinfo id="veh5" depart="3.00" departLane="-48736639#1_1" departPos="1.04" departSpeed="0.00" departDelay="0.55" arrival="182.00" arrivalLane="383582854#0_0" arrivalPos="13.10" arrivalSpeed="4.95" duration="179.00" routeLength="1505.98" waitingTime="39.00" waitingCount="2" stopTime="0.00" timeLoss="72.67" rerouteNo="0" devices="tripinfo_veh5" vType="passenger" speedFactor="1.08" vaporized=""/>
    <personinfo id="ped23" depart="115.00" type="DEFAULT_PEDTYPE" speedFactor="0.98" duration="68.00" waitingTime="0.00" timeLoss="7.70" traveltime="68.00">
        <walk depart="115.00" departPos="0.00" arrival="183.00" arrivalPos="25.53" duration="68.00" routeLength="82.09" timeLoss="7.70" maxSpeed="1.36"/>
    </personinfo>
    <tripinfo id="veh182" depart="90.00" departLane="43573769#1_1" departPos="51.33" departSpeed="0.00" departDelay="0.82" arrival="183.00" arrivalLane="-43544179#5_1" arrivalPos="42.26" arrivalSpeed="12.19" duration="93.00" routeLength="1053.39" waitingTime="0.00" waitingCount="0" stopTime="0.00" timeLoss="10.99" rerouteNo="0" devices="tripinfo_veh182" vType="passenger" speedFactor="0.96" vaporized=""/>
    <tripinfo id="veh96" depart="48.00" departLane="43546789#0_1" departPos="0.88" departSpeed="0.00" departDelay="0.96" arrival="189.00" arrivalLane="-945793485#0_1" arrivalPos="25.01" arrivalSpeed="12.81" duration="141.00" routeLength="1372.40" waitingTime="0.00" waitingCount="0" stopTime="0.00" timeLoss="28.94" rerouteNo="0" devices="tripinfo_veh96" vType="passenger" speedFactor="0.99" vaporized=""/>
    <tripinfo id="veh165" depart="81.00" departLane="-25379984#2_2" departPos="87.12" departSpeed="0.00" departDelay="0.15" arrival="189.00" arrivalLane="-992542691_0" arrivalPos="22.19" arrivalSpeed="4.80" duration="108.00" routeLength="1151.44" waitingTime="0.00" waitingCount="0" stopTime="0.00" timeLoss="13.68" rerouteNo="0" devices="tripinfo_veh165" vType="delivery" speedFactor="0.94" vaporized=""/>
    <tripinfo id="veh118" depart="58.00" departLane="-492965073#7_1" departPos="30.20" departSpeed="0.00" departDelay="0.18" arrival="190.00" arrivalLane="-E27_1" arrivalPos="36.70" arrivalSpeed="12.72" duration="132.00" routeLength="1263.01" waitingTime="28.00" waitingCount="3" stopTime="0.00" timeLoss="55.90" rerouteNo="0" devices="tripinfo_veh118" vType="passenger" speedFactor="1.21" vaporized=""/>
    <tripinfo id="veh80" depart="40.00" departLane="-40299739#0_1" departPos="50.68" departSpeed="0.00" departDelay="0.80" arrival="192.00" arrivalLane="1135772297_0" arrivalPos="4.72" arrivalSpeed="4.79" duration="152.00" routeLength="1294.16" waitingTime="31.00" waitingCount="1" stopTime="0.00" timeLoss="49.66" rerouteNo="0" devices="tripinfo_veh80" vType="emergency" speedFactor="1.00" vaporized=""/>
    <tripinfo id="veh184" depart="91.00" departLane="945794111_1" departPos="16.28" departSpeed="0.00" departDelay="0.84" arrival="192.00" arrivalLane="40236153#1_1" arrivalPos="105.33" arrivalSpeed="12.20" duration="101.00" routeLength="899.48" waitingTime="10.00" waitingCount="1" stopTime="0.00" timeLoss="31.06" rerouteNo="0" devices="tripinfo_veh184" vType="motorcycle" speedFactor="1.01" vaporized=""/>
    <tripinfo id="veh57" depart="28.00" departLane="354259927_1" departPos="298.21" departSpeed="0.00" departDelay="0.07" arrival="194.00" arrivalLane="-222605087#4_1" arrivalPos="52.91" arrivalSpeed="4.73" duration="166.00" routeLength="1463.31" waitingTime="0.00" waitingCount="0" stopTime="0.00" timeLoss="22.66" rerouteNo="0" devices="tripinfo_veh57" vType="passenger" speedFactor="1.02" vaporized=""/>
    <tripinfo id="veh148" depart="73.00" departLane="383582496_0" departPos="80.16" departSpeed="0.00" departDelay="0.48" arrival="194.00" arrivalLane="-251916699#0_1" arrivalPos="41.20" arrivalSpeed="12.91" duration="121.00" routeLength="1133.22" waitingTime="0.00" waitingCount="0" stopTime="0.00" timeLoss="20.29" rerouteNo="0" devices="tripinfo_veh148" vType="motorcycle" speedFactor="1.08" vaporized=""/>
    <tripinfo id="veh67" depart="33.00" departLane="-1136301818_1" departPos="6.73" departSpeed="0.00" departDelay="0.17" arrival="196.00" arrivalLane="647610982#3_1" arrivalPos="42.20" arrivalSpeed="13.06" duration="163.00" routeLength="1560.30" waitingTime="14.00" waitingCount="1" stopTime="0.00" timeLoss="43.24" rerouteNo="0" devices="tripinfo_veh67" vType="passenger" speedFactor="0.98" vaporized=""/>
    <tripinfo id="veh130" depart="64.00" departLane="-945793490#3_1" departPos="1.83" departSpeed="0.00" departDelay="0.30" arrival="198.00" arrivalLane="-945794107_1" arrivalPos="125.84" arrivalSpeed="8.04" duration="134.00" routeLength="1163.56" waitingTime="9.00" waitingCount="2" stopTime="0.00" timeLoss="24.67" rerouteNo="0" devices="tripinfo_veh130" vType="delivery" speedFactor="1.00" vaporized=""/>
    <tripinfo id="veh188" depart="93.00" departLane="-43546789#1_1" departPos="45.49" departSpeed="0.00" departDelay="0.88" arrival="200.00" arrivalLane="671642321_1" arrivalPos="87.26" arrivalSpeed="4.81" duration="107.00" routeLength="1004.52" waitingTime="0.00" waitingCount="0" stopTime="0.00" timeLoss="15.22" rerouteNo="0" devices="tripinfo_veh188" vType="passenger" speedFactor="0.92" vaporized=""/>
    <tripinfo id="veh285" depart="140.00" departLane="-143207979#3_1" departPos="33.80" departSpeed="0.00" departDelay="0.35" arrival="200.00" arrivalLane="43544197#8_1" arrivalPos="132.38" arrivalSpeed="15.15" duration="60.00" routeLength="646.81" waitingTime="0.00" waitingCount="0" stopTime="0.00" timeLoss="17.69" rerouteNo="0" devices="tripinfo_veh285" vType="passenger" speedFactor="1.16" vaporized=""/>
    <personinfo id="ped7" depart="35.00" type="DEFAULT_PEDTYPE" speedFactor="0.99" duration="166.00" waitingTime="0.00" timeLoss="16.78" traveltime="166.00">
        <walk depart="35.00" departPos="0.00" arrival="201.00" arrivalPos="47.36" duration="166.00" routeLength="204.68" timeLoss="16.78" maxSpeed="1.37"/>
    </personinfo>
    <tripinfo id="veh73" depart="36.00" departLane="-43546088_1" departPos="166.29" departSpeed="0.00" departDelay="0.23" arrival="201.00" arrivalLane="33909936#0_1" arrivalPos="22.47" arrivalSpeed="13.88" duration="165.00" routeLength="1774.46" waitingTime="5.00" waitingCount="2" stopTime="0.00" timeLoss="36.61" rerouteNo="0" devices="tripinfo_veh73" vType="passenger" speedFactor="1.05" vaporized=""/>
    <personinfo id="ped30" depart="150.00" type="DEFAULT_PEDTYPE" speedFactor="1.06" duration="54.00" waitingTime="0.00" timeLoss="6.22" traveltime="54.00">
        <walk depart="150.00" departPos="0.00" arrival="204.00" arrivalPos="36.76" duration="54.00" routeLength="70.14" timeLoss="6.22" maxSpeed="1.47"/>
    </personinfo>
    <tripinfo id="veh68" depart="34.00" departLane="43546460#8_1" departPos="89.26" departSpeed="0.00" departDelay="0.68" arrival="205.00" arrivalLane="647755347#0_1" arrivalPos="70.01" arrivalSpeed="12.93" duration="171.00" routeLength="1648.25" waitingTime="18.00" waitingCount="2" stopTime="0.00" timeLoss="46.58" rerouteNo="0" devices="tripinfo_veh68" vType="passenger" speedFactor="0.98" vaporized=""/>
    <tripinfo id="veh152" depart="75.00" departLane="48778481#8_2" departPos="0.12" departSpeed="0.00" departDelay="0.52" arrival="205.00" arrivalLane="40236203#1_1" arrivalPos="32.69" arrivalSpeed="12.41" duration="130.00" routeLength="988.34" waitingTime="39.00" waitingCount="2" stopTime="0.00" timeLoss="51.40" rerouteNo="0" devices="tripinfo_veh152" vType="passenger" speedFactor="0.93" vaporized=""/>
    <tripinfo id="veh164" depart="81.00" departLane="-1205517951_0" departPos="51.23" departSpeed="0.00" departDelay="0.64" arrival="206.00" arrivalLane="-223942064#1_0" arrivalPos="1.05" arrivalSpeed="15.60" duration="125.00" routeLength="1665.48" waitingTime="0.00" waitingCount="0" stopTime="0.00" timeLoss="15.33" rerouteNo="0" devices="tripinfo_veh164" vType="passenger" speedFactor="1.15" vaporized=""/>
    <tripinfo id="veh50" depart="25.00" departLane="-40345930_1" departPos="10.06" departSpeed="0.00" departDelay="0.50" arrival="208.00" arrivalLane="671642321_1" arrivalPos="87.26" arrivalSpeed="5.77" duration="183.00" routeLength="1608.08" waitingTime="46.00" waitingCount="2" stopTime="0.00" timeLoss="68.36" rerouteNo="0" devices="tripinfo_veh50" vType="passenger" speedFactor="1.12" vaporized=""/>
    <tripinfo id="veh140" depart="69.00" departLane="1136301814#0_1" departPos="39.89" departSpeed="0.00" departDelay="0.40" arrival="209.00" arrivalLane="-43546449#2_1" arrivalPos="49.54" arrivalSpeed="11.83" duration="140.00" routeLength="920.78" waitingTime="36.00" waitingCount="2" stopTime="0.00" timeLoss="60.15" rerouteNo="0" devices="tripinfo_veh140" vType="passenger" speedFactor="0.87" vaporized=""/>
    <tripinfo id="veh37" depart="19.00" departLane="1054663953_0" departPos="16.41" departSpeed="0.00" departDelay="0.87" arrival="210.00" arrivalLane="222609002#4_1" arrivalPos="52.31" arrivalSpeed="15.09" duration="191.00" routeLength="2238.69" waitingTime="6.00" waitingCount="2" stopTime="0.00" timeLoss="36.39" rerouteNo="0" devices="tripinfo_veh37" vType="passenger" speedFactor="1.09" vaporized=""/>
    <tripinfo id="veh213" depart="105.00" departLane="-470210923#0_2" departPos="60.36" departSpeed="0.00" departDelay="0.63" arrival="211.00" arrivalLane="1136301812#1_1" arrivalPos="9.56" arrivalSpeed="13.59" duration="106.00" routeLength="629.29" waitingTime="41.00" waitingCount="2" stopTime="0.00" timeLoss="58.37" rerouteNo="0" devices="tripinfo_veh213" vType="passenger" speedFactor="0.98" vaporized=""/>
    <tripinfo id="veh167" depart="82.00" departLane="40266621_1" departPos="10.55" departSpeed="0.00" departDelay="0.17" arrival="213.00" arrivalLane="-354259933#2_1" arrivalPos="84.86" arrivalSpeed="10.49" duration="131.00" routeLength="1280.80" waitingTime="0.00" waitingCount="0" stopTime="0.00" timeLoss="16.28" rerouteNo="0" devices="tripinfo_veh167" vType="passenger" speedFactor="0.83" vaporized=""/>
    <tripinfo id="veh231" depart="114.00" departLane="-1107366376_0" departPos="44.93" departSpeed="0.00" departDelay="0.81" arrival="214.00" arrivalLane="-470210923#1_1" arrivalPos="157.10" arrivalSpeed="10.78" duration="100.00" routeLength="886.00" waitingTime="0.00" waitingCount="0" stopTime="0.00" timeLoss="11.42" rerouteNo="0" devices="tripinfo_veh231" vType="passenger" speedFactor="0.85" vaporized=""/>
    <tripinfo id="veh142" depart="70.00" departLane="1054663953_0" departPos="18.64" departSpeed="0.00" departDelay="0.42" arrival="216.00" arrivalLane="75628811#1_1" arrivalPos="166.06" arrivalSpeed="14.48" duration="146.00" routeLength="1235.66" waitingTime="25.00" waitingCount="1" stopTime="0.00" timeLoss="55.83" rerouteNo="0" devices="tripinfo_veh142" vType="passenger" speedFactor="1.06" vaporized=""/>
    <tripinfo id="veh13" depart="7.00" departLane="48778485#0_1" departPos="17.19" departSpeed="0.00" departDelay="0.63" arrival="219.00" arrivalLane="43547017#3_1" arrivalPos="48.19" arrivalSpeed="13.44" duration="212.00" routeLength="1642.05" waitingTime="44.00" waitingCount="3" stopTime="0.00" timeLoss="92.87" rerouteNo="0" devices="tripinfo_veh13" vType="passenger" speedFactor="1.04" vaporized=""/>
    <tripinfo id="veh144" depart="71.00" departLane="48736624#3_1" departPos="6.84" departSpeed="0.00" departDelay="0.44" arrival="219.00" arrivalLane="-40299739#1_1" arrivalPos="75.94" arrivalSpeed="14.20" duration="148.00" routeLength="1451.72" waitingTime="13.00" waitingCount="2" stopTime="0.00" timeLoss="43.49" rerouteNo="0" devices="tripinfo_veh144" vType="motorcycle" speedFactor="1.02" vaporized=""/>
    <personinfo id="ped20" depart="100.00" type="DEFAULT_PEDTYPE" speedFactor="0.86" duration="121.00" waitingTime="0.00" timeLoss="12.73" traveltime="121.00">
        <walk depart="100.00" departPos="0.00" arrival="221.00" arrivalPos="38.19" duration="121.00" routeLength="129.76" timeLoss="12.73" maxSpeed="1.20"/>
    </personinfo>
    <tripinfo id="veh85" depart="42.00" departLane="48736667_1" departPos="1.48" departSpeed="0.00" departDelay="0.35" arrival="221.00" arrivalLane="945793485#1_1" arrivalPos="18.52" arrivalSpeed="14.08" duration="179.00" routeLength="1914.65" waitingTime="2.00" waitingCount="1" stopTime="0.00" timeLoss="43.24" rerouteNo="0" devices="tripinfo_veh85" vType="passenger" speedFactor="1.08" vaporized=""/>
    <tripinfo id="veh183" depart="90.00" departLane="996984133_1" departPos="71.97" departSpeed="0.00" departDelay="0.33" arrival="221.00" arrivalLane="-48778475#0_1" arrivalPos="61.83" arrivalSpeed="13.38" duration="131.00" routeLength="1146.44" waitingTime="15.00" waitingCount="3" stopTime="0.00" timeLoss="42.36" rerouteNo="0" devices="tripinfo_veh183" vType="passenger" speedFactor="0.97" vaporized=""/>
    <tripinfo id="veh49" depart="25.00" departLane="1137794254_1" departPos="9.94" departSpeed="0.00" departDelay="0.99" arrival="222.00" arrivalLane="43546648#5_1" arrivalPos="18.50" arrivalSpeed="12.79" duration="197.00" routeLength="2214.65" waitingTime="0.00" waitingCount="0" stopTime="0.00" timeLoss="32.43" rerouteNo="0" devices="tripinfo_veh49" vType="passenger" speedFactor="1.00" vaporized=""/>
    <tripinfo id="veh88" depart="44.00" departLane="1135855898_0" departPos="47.15" departSpeed="0.00" departDelay="0.88" arrival="223.00" arrivalLane="143207979#6_1" arrivalPos="223.32" arrivalSpeed="13.38" duration="179.00" routeLength="2132.62" waitingTime="0.00" waitingCount="0" stopTime="0.00" timeLoss="25.70" rerouteNo="0" devices="tripinfo_veh88" vType="delivery" speedFactor="1.03" vaporized=""/>
    <tripinfo id="veh38" depart="19.00" departLane="945794107_1" departPos="31.16" departSpeed="0.00" departDelay="0.38" arrival="224.00" arrivalLane="-273835688_1" arrivalPos="177.49" arrivalSpeed="12.25" duration="205.00" routeLength="1877.81" waitingTime="31.00" waitingCount="2" stopTime="0.00" timeLoss="55.14" rerouteNo="0" devices="tripinfo_veh38" vType="passenger" speedFactor="0.95" vaporized=""/>