<?xml version="1.0" encoding="UTF-8"?>

<!-- generated on 2025-06-12 12:34:22 by Eclipse SUMO sumo Version 1.22.0
<sumoConfiguration xmlns:xsi="http://www.w3.org/2001/XMLSchema-instance" xsi:noNamespaceSchemaLocation="http://sumo.dlr.de/xsd/sumoConfiguration.xsd">

    <input>
        <net-file value="osm.net.xml"/>
        <route-files value="full.rou.xml, ped.rou.xml, truck.rou.xml"/>
        <additional-files value="osm.poly.xml, vtypes.xml"/>
    </input>

    <output>
        <summary-output value="summary.xml"/>
        <tripinfo-output value="E:\licenta\oras-mediu\2025-06-05-11-45-23\baseline_outputs\tripinfo_baseline_ep23.xml"/>
    </output>

    <processing>
        <ignore-route-errors value="true"/>
        <tls.actuated.jam-threshold value="30"/>
    </processing>

    <routing>
        <device.rerouting.adaptation-steps value="18"/>
        <device.rerouting.adaptation-interval value="10"/>
    </routing>

    <report>
        <verbose value="true"/>
        <duration-log.statistics value="true"/>
        <no-step-log value="true"/>
    </report>

    <traci_server>
        <remote-port value="64568"/>
    </traci_server>

    <gui_only>
        <gui-settings-file value="osm.view.xml"/>
    </gui_only>

</sumoConfiguration>
-->

<tripinfos xmlns:xsi="http://www.w3.org/2001/XMLSchema-instance" xsi:noNamespaceSchemaLocation="http://sumo.dlr.de/xsd/tripinfo_file.xsd">
    <tripinfo id="veh24" depart="10.00" departLane="-40330557#2_1" departPos="2.98" departSpeed="0.00" departDelay="0.40" arrival="62.00" arrivalLane="40330557#0_1" arrivalPos="52.98" arrivalSpeed="11.50" duration="52.00" routeLength="341.45" waitingTime="0.00" waitingCount="0" stopTime="0.00" timeLoss="13.18" rerouteNo="0" devices="tripinfo_veh24" vType="passenger" speedFactor="0.89" vaporized=""/>
    <tripinfo id="veh30" depart="12.00" departLane="353939570#9_2" departPos="58.62" departSpeed="0.00" departDelay="0.00" arrival="71.00" arrivalLane="-250295381_1" arrivalPos="38.77" arrivalSpeed="11.94" duration="59.00" routeLength="609.28" waitingTime="0.00" waitingCount="0" stopTime="0.00" timeLoss="8.94" rerouteNo="0" devices="tripinfo_veh30" vType="passenger" speedFactor="0.94" vaporized=""/>
    <tripinfo id="veh0" depart="0.00" departLane="-143207979#8_1" departPos="34.41" departSpeed="0.00" departDelay="0.00" arrival="73.00" arrivalLane="354252043_1" arrivalPos="59.61" arrivalSpeed="11.70" duration="73.00" routeLength="792.24" waitingTime="0.00" waitingCount="0" stopTime="0.00" timeLoss="12.33" rerouteNo="0" devices="tripinfo_veh0" vType="motorcycle" speedFactor="0.98" vaporized=""/>
    <tripinfo id="veh19" depart="8.00" departLane="354259933#0_1" departPos="9.50" departSpeed="0.00" departDelay="0.40" arrival="91.00" arrivalLane="-222605087#0_1" arrivalPos="20.52" arrivalSpeed="4.69" duration="83.00" routeLength="727.60" waitingTime="0.00" waitingCount="0" stopTime="0.00" timeLoss="11.31" rerouteNo="0" devices="tripinfo_veh19" vType="passenger" speedFactor="0.89" vaporized=""/>
    <tripinfo id="veh204" depart="82.00" departLane="1257907654_0" departPos="3.82" departSpeed="0.00" departDelay="0.40" arrival="97.00" arrivalLane="1257907654_0" arrivalPos="78.90" arrivalSpeed="5.17" duration="15.00" routeLength="75.08" waitingTime="0.00" waitingCount="0" stopTime="0.00" timeLoss="2.32" rerouteNo="0" devices="tripinfo_veh204" vType="passenger" speedFactor="1.07" vaporized=""/>
    <tripinfo id="veh173" depart="70.00" departLane="250295513_1" departPos="15.81" departSpeed="0.00" departDelay="0.80" arrival="104.00" arrivalLane="492965073#8_2" arrivalPos="91.29" arrivalSpeed="12.61" duration="34.00" routeLength="326.60" waitingTime="0.00" waitingCount="0" stopTime="0.00" timeLoss="9.26" rerouteNo="0" devices="tripinfo_veh173" vType="motorcycle" speedFactor="1.00" vaporized=""/>
    <tripinfo id="veh118" depart="48.00" departLane="-1136301812#1_1" departPos="4.12" departSpeed="0.00" departDelay="0.80" arrival="105.00" arrivalLane="-43546648#1_1" arrivalPos="105.30" arrivalSpeed="15.31" duration="57.00" routeLength="518.92" waitingTime="1.00" waitingCount="1" stopTime="0.00" timeLoss="19.94" rerouteNo="0" devices="tripinfo_veh118" vType="passenger" speedFactor="1.11" vaporized=""/>
    <tripinfo id="veh50" depart="20.00" departLane="-48736645_1" departPos="3.20" departSpeed="0.00" departDelay="0.00" arrival="108.00" arrivalLane="-40236220#1_1" arrivalPos="30.08" arrivalSpeed="12.96" duration="88.00" routeLength="880.69" waitingTime="0.00" waitingCount="0" stopTime="0.00" timeLoss="18.80" rerouteNo="0" devices="tripinfo_veh50" vType="delivery" speedFactor="0.98" vaporized=""/>
    <tripinfo id="veh152" depart="61.00" departLane="48778480#0_1" departPos="24.58" departSpeed="0.00" departDelay="0.20" arrival="113.00" arrivalLane="40266907#0_1" arrivalPos="33.90" arrivalSpeed="11.96" duration="52.00" routeLength="530.11" waitingTime="0.00" waitingCount="0" stopTime="0.00" timeLoss="9.25" rerouteNo="0" devices="tripinfo_veh152" vType="passenger" speedFactor="0.93" vaporized=""/>
    <tripinfo id="veh163" depart="66.00" departLane="43544179#9_1" departPos="222.19" departSpeed="0.00" departDelay="0.80" arrival="117.00" arrivalLane="-43544046_1" arrivalPos="104.31" arrivalSpeed="15.26" duration="51.00" routeLength="494.67" waitingTime="0.00" waitingCount="0" stopTime="0.00" timeLoss="17.57" rerouteNo="0" devices="tripinfo_veh163" vType="passenger" speedFactor="1.15" vaporized=""/>
    <tripinfo id="veh23" depart="10.00" departLane="383582854#1_0" departPos="54.44" departSpeed="0.00" departDelay="0.80" arrival="118.00" arrivalLane="-383582493_1" arrivalPos="258.32" arrivalSpeed="9.09" duration="108.00" routeLength="819.48" waitingTime="22.00" waitingCount="1" stopTime="0.00" timeLoss="37.32" rerouteNo="0" devices="tripinfo_veh23" vType="passenger" speedFactor="1.13" vaporized=""/>
    <tripinfo id="veh68" depart="28.00" departLane="43546064#2_1" departPos="0.09" departSpeed="0.00" departDelay="0.80" arrival="126.00" arrivalLane="43544202#0_1" arrivalPos="273.61" arrivalSpeed="13.75" duration="98.00" routeLength="958.08" waitingTime="9.00" waitingCount="1" stopTime="0.00" timeLoss="31.71" rerouteNo="0" devices="tripinfo_veh68" vType="passenger" speedFactor="1.08" vaporized=""/>
    <tripinfo id="veh84" depart="34.00" departLane="143207979#3_1" departPos="0.28" departSpeed="0.00" departDelay="0.40" arrival="127.00" arrivalLane="48778517#1_1" arrivalPos="40.09" arrivalSpeed="8.04" duration="93.00" routeLength="977.08" waitingTime="0.00" waitingCount="0" stopTime="0.00" timeLoss="20.37" rerouteNo="0" devices="tripinfo_veh84" vType="passenger" speedFactor="1.08" vaporized=""/>
    <tripinfo id="veh131" depart="53.00" departLane="353939570#5_1" departPos="5.96" departSpeed="0.00" departDelay="0.60" arrival="128.00" arrivalLane="-223883703_0" arrivalPos="83.93" arrivalSpeed="5.83" duration="75.00" routeLength="942.55" waitingTime="0.00" waitingCount="0" stopTime="0.00" timeLoss="8.05" rerouteNo="0" devices="tripinfo_veh131" vType="passenger" speedFactor="1.18" vaporized=""/>
    <personinfo id="ped18" depart="90.00" type="DEFAULT_PEDTYPE" speedFactor="1.04" duration="45.00" waitingTime="0.00" timeLoss="4.81" traveltime="45.00">
        <walk depart="90.00" departPos="0.00" arrival="135.00" arrivalPos="15.04" duration="45.00" routeLength="58.31" timeLoss="4.81" maxSpeed="1.45"/>
    </personinfo>
    <personinfo id="ped6" depart="30.00" type="DEFAULT_PEDTYPE" speedFactor="1.03" duration="105.00" waitingTime="0.00" timeLoss="10.84" traveltime="105.00">
        <walk depart="30.00" departPos="0.00" arrival="135.00" arrivalPos="28.07" duration="105.00" routeLength="134.86" timeLoss="10.84" maxSpeed="1.43"/>
    </personinfo>
    <tripinfo id="veh42" depart="17.00" departLane="33913538#9_1" departPos="6.79" departSpeed="0.00" departDelay="0.20" arrival="137.00" arrivalLane="-1136301812#1_1" arrivalPos="6.69" arrivalSpeed="12.49" duration="120.00" routeLength="1425.48" waitingTime="0.00" waitingCount="0" stopTime="0.00" timeLoss="20.20" rerouteNo="0" devices="tripinfo_veh42" vType="passenger" speedFactor="1.06" vaporized=""/>
    <tripinfo id="veh157" depart="63.00" departLane="-250295384_1" departPos="92.42" departSpeed="0.00" departDelay="0.20" arrival="137.00" arrivalLane="-40266620_1" arrivalPos="32.50" arrivalSpeed="15.91" duration="74.00" routeLength="849.10" waitingTime="0.00" waitingCount="0" stopTime="0.00" timeLoss="19.48" rerouteNo="0" devices="tripinfo_veh157" vType="passenger" speedFactor="1.18" vaporized=""/>
    <tripinfo id="veh59" depart="24.00" departLane="-48736624#2_1" departPos="0.03" departSpeed="0.00" departDelay="0.40" arrival="138.00" arrivalLane="-258551297#0_0" arrivalPos="10.89" arrivalSpeed="5.34" duration="114.00" routeLength="962.79" waitingTime="1.00" waitingCount="1" stopTime="0.00" timeLoss="25.13" rerouteNo="0" devices="tripinfo_veh59" vType="passenger" speedFactor="1.02" vaporized=""/>
    <tripinfo id="veh161" depart="65.00" departLane="-671642324_1" departPos="11.53" departSpeed="0.00" departDelay="0.60" arrival="139.00" arrivalLane="859732803#1_0" arrivalPos="26.12" arrivalSpeed="4.15" duration="74.00" routeLength="628.58" waitingTime="0.00" waitingCount="0" stopTime="0.00" timeLoss="14.63" rerouteNo="0" devices="tripinfo_veh161" vType="passenger" speedFactor="0.90" vaporized=""/>
    <tripinfo id="veh102" depart="41.00" departLane="40314853#2_1" departPos="0.90" departSpeed="0.00" departDelay="0.20" arrival="140.00" arrivalLane="273835688_1" arrivalPos="176.77" arrivalSpeed="13.11" duration="99.00" routeLength="1041.34" waitingTime="3.00" waitingCount="1" stopTime="0.00" timeLoss="22.22" rerouteNo="0" devices="tripinfo_veh102" vType="passenger" speedFactor="1.02" vaporized=""/>
    <tripinfo id="veh151" depart="61.00" departLane="48778498#2_1" departPos="84.26" departSpeed="0.00" departDelay="0.60" arrival="143.00" arrivalLane="43546648#0_1" arrivalPos="105.45" arrivalSpeed="13.77" duration="82.00" routeLength="964.87" waitingTime="0.00" waitingCount="0" stopTime="0.00" timeLoss="12.18" rerouteNo="0" devices="tripinfo_veh151" vType="passenger" speedFactor="1.03" vaporized=""/>
    <tripinfo id="veh265" depart="106.00" departLane="1250915720#0_1" departPos="2.55" departSpeed="0.00" departDelay="0.00" arrival="143.00" arrivalLane="222605084#5_1" arrivalPos="9.96" arrivalSpeed="5.74" duration="37.00" routeLength="200.59" waitingTime="0.00" waitingCount="0" stopTime="0.00" timeLoss="5.16" rerouteNo="0" devices="tripinfo_veh265" vType="passenger" speedFactor="1.13" vaporized=""/>
    <tripinfo id="veh81" depart="33.00" departLane="33913538#7_2" departPos="111.73" departSpeed="0.00" departDelay="0.60" arrival="144.00" arrivalLane="-48736621#2_1" arrivalPos="13.16" arrivalSpeed="8.61" duration="111.00" routeLength="1115.60" waitingTime="1.00" waitingCount="1" stopTime="0.00" timeLoss="24.66" rerouteNo="0" devices="tripinfo_veh81" vType="delivery" speedFactor="0.98" vaporized=""/>
    <tripinfo id="veh196" depart="79.00" departLane="43544179#10_1" departPos="14.45" departSpeed="0.00" departDelay="0.60" arrival="144.00" arrivalLane="-222608880#1_1" arrivalPos="94.49" arrivalSpeed="14.23" duration="65.00" routeLength="772.98" waitingTime="0.00" waitingCount="0" stopTime="0.00" timeLoss="9.17" rerouteNo="0" devices="tripinfo_veh196" vType="passenger" speedFactor="1.04" vaporized=""/>
    <tripinfo id="veh117" depart="47.00" departLane="-48797771#2_1" departPos="7.04" departSpeed="0.00" departDelay="0.20" arrival="146.00" arrivalLane="-1135772297_0" arrivalPos="4.71" arrivalSpeed="5.71" duration="99.00" routeLength="614.47" waitingTime="29.00" waitingCount="1" stopTime="0.00" timeLoss="51.89" rerouteNo="0" devices="tripinfo_veh117" vType="passenger" speedFactor="1.06" vaporized=""/>
    <tripinfo id="veh189" depart="76.00" departLane="43546105#3_1" departPos="29.64" departSpeed="0.00" departDelay="0.40" arrival="147.00" arrivalLane="-43546057_1" arrivalPos="223.56" arrivalSpeed="14.60" duration="71.00" routeLength="865.01" waitingTime="0.00" waitingCount="0" stopTime="0.00" timeLoss="11.94" rerouteNo="0" devices="tripinfo_veh189" vType="passenger" speedFactor="1.09" vaporized=""/>
    <tripinfo id="veh267" depart="107.00" departLane="-48736617#1_1" departPos="13.17" departSpeed="0.00" departDelay="0.20" arrival="147.00" arrivalLane="48736619_1" arrivalPos="65.02" arrivalSpeed="13.53" duration="40.00" routeLength="410.89" waitingTime="0.00" waitingCount="0" stopTime="0.00" timeLoss="8.63" rerouteNo="0" devices="tripinfo_veh267" vType="emergency" speedFactor="1.00" vaporized=""/>
    <tripinfo id="veh159" depart="64.00" departLane="264868325_1" departPos="103.52" departSpeed="0.00" departDelay="0.40" arrival="152.00" arrivalLane="48778527_1" arrivalPos="56.14" arrivalSpeed="14.33" duration="88.00" routeLength="992.92" waitingTime="0.00" waitingCount="0" stopTime="0.00" timeLoss="17.02" rerouteNo="0" devices="tripinfo_veh159" vType="passenger" speedFactor="1.07" vaporized=""/>
    <tripinfo id="veh38" depart="16.00" departLane="48797767#0_1" departPos="20.15" departSpeed="0.00" departDelay="0.80" arrival="153.00" arrivalLane="1050436320_0" arrivalPos="280.37" arrivalSpeed="4.69" duration="137.00" routeLength="1139.68" waitingTime="0.00" waitingCount="0" stopTime="0.00" timeLoss="20.86" rerouteNo="0" devices="tripinfo_veh38" vType="emergency" speedFactor="1.00" vaporized=""/>
    <tripinfo id="veh91" depart="37.00" departLane="251916699#2.34_1" departPos="8.79" departSpeed="0.00" departDelay="0.60" arrival="157.00" arrivalLane="40304754#4_1" arrivalPos="101.37" arrivalSpeed="11.14" duration="120.00" routeLength="1213.76" waitingTime="0.00" waitingCount="0" stopTime="0.00" timeLoss="14.96" rerouteNo="0" devices="tripinfo_veh91" vType="passenger" speedFactor="0.87" vaporized=""/>
    <tripinfo id="veh328" depart="132.00" departLane="-48778461#1_1" departPos="1.87" departSpeed="0.00" departDelay="0.80" arrival="158.00" arrivalLane="-48778454#1_1" arrivalPos="94.52" arrivalSpeed="14.16" duration="26.00" routeLength="194.33" waitingTime="1.00" waitingCount="1" stopTime="0.00" timeLoss="11.00" rerouteNo="0" devices="tripinfo_veh328" vType="passenger" speedFactor="1.02" vaporized=""/>
    <tripinfo id="veh27" depart="11.00" departLane="E32_2" departPos="152.82" departSpeed="0.00" departDelay="0.20" arrival="159.00" arrivalLane="48797773_1" arrivalPos="23.80" arrivalSpeed="11.75" duration="148.00" routeLength="1437.36" waitingTime="14.00" waitingCount="1" stopTime="0.00" timeLoss="39.01" rerouteNo="0" devices="tripinfo_veh27" vType="passenger" speedFactor="0.99" vaporized=""/>
    <tripinfo id="veh115" depart="46.00" departLane="43546064#1_1" departPos="19.88" departSpeed="0.00" departDelay="0.00" arrival="159.00" arrivalLane="-48778524#0_1" arrivalPos="98.21" arrivalSpeed="13.59" duration="113.00" routeLength="1298.49" waitingTime="0.00" waitingCount="0" stopTime="0.00" timeLoss="16.21" rerouteNo="0" devices="tripinfo_veh115" vType="emergency" speedFactor="1.00" vaporized=""/>
    <tripinfo id="veh2" depart="1.00" departLane="43546793_1" departPos="94.40" departSpeed="0.00" departDelay="0.20" arrival="161.00" arrivalLane="-43546935#2_1" arrivalPos="44.28" arrivalSpeed="13.96" duration="160.00" routeLength="2002.71" waitingTime="0.00" waitingCount="0" stopTime="0.00" timeLoss="22.56" rerouteNo="0" devices="tripinfo_veh2" vType="passenger" speedFactor="1.08" vaporized=""/>
    <tripinfo id="veh129" depart="52.00" departLane="-48778427_1" departPos="374.69" departSpeed="0.00" departDelay="0.40" arrival="166.00" arrivalLane="-422283114_0" arrivalPos="185.51" arrivalSpeed="5.56" duration="114.00" routeLength="1163.25" waitingTime="0.00" waitingCount="0" stopTime="0.00" timeLoss="14.71" rerouteNo="0" devices="tripinfo_veh129" vType="passenger" speedFactor="1.07" vaporized=""/>
    <tripinfo id="veh246" depart="99.00" departLane="-48778510#1_1" departPos="36.82" departSpeed="0.00" departDelay="0.60" arrival="167.00" arrivalLane="48778500#1_1" arrivalPos="82.22" arrivalSpeed="14.27" duration="68.00" routeLength="682.57" waitingTime="0.00" waitingCount="0" stopTime="0.00" timeLoss="19.60" rerouteNo="0" devices="tripinfo_veh246" vType="passenger" speedFactor="1.10" vaporized=""/>
    <personinfo id="ped2" depart="10.00" type="DEFAULT_PEDTYPE" speedFactor="0.98" duration="159.00" waitingTime="0.00" timeLoss="16.52" traveltime="159.00">
        <walk depart="10.00" departPos="0.00" arrival="169.00" arrivalPos="18.34" duration="159.00" routeLength="194.30" timeLoss="16.52" maxSpeed="1.36"/>
    </personinfo>
    <tripinfo id="veh7" depart="3.00" departLane="383582497_0" departPos="16.92" departSpeed="0.00" departDelay="0.20" arrival="169.00" arrivalLane="-578560104#4_1" arrivalPos="13.09" arrivalSpeed="13.76" duration="166.00" routeLength="1306.34" waitingTime="50.00" waitingCount="1" stopTime="0.00" timeLoss="69.66" rerouteNo="0" devices="tripinfo_veh7" vType="delivery" speedFactor="1.05" vaporized=""/>
    <tripinfo id="veh238" depart="96.00" departLane="48778502#1_1" departPos="163.58" departSpeed="0.00" departDelay="0.80" arrival="169.00" arrivalLane="671386628#1_1" arrivalPos="211.01" arrivalSpeed="12.91" duration="73.00" routeLength="824.15" waitingTime="0.00" waitingCount="0" stopTime="0.00" timeLoss="10.37" rerouteNo="0" devices="tripinfo_veh238" vType="passenger" speedFactor="0.98" vaporized=""/>
    <tripinfo id="veh65" depart="26.00" departLane="48778473#2_1" departPos="31.78" departSpeed="0.00" departDelay="0.00" arrival="171.00" arrivalLane="-40299264#0_1" arrivalPos="72.08" arrivalSpeed="14.28" duration="145.00" routeLength="1771.79" waitingTime="0.00" waitingCount="0" stopTime="0.00" timeLoss="23.24" rerouteNo="0" devices="tripinfo_veh65" vType="passenger" speedFactor="1.09" vaporized=""/>
    <tripinfo id="veh36" depart="15.00" departLane="-353939570#5_1" departPos="46.49" departSpeed="0.00" departDelay="0.60" arrival="172.00" arrivalLane="848060815_1" arrivalPos="138.45" arrivalSpeed="13.49" duration="157.00" routeLength="1711.60" waitingTime="13.00" waitingCount="1" stopTime="0.00" timeLoss="35.61" rerouteNo="0" devices="tripinfo_veh36" vType="passenger" speedFactor="1.04" vaporized=""/>
    <tripinfo id="veh335" depart="134.00" departLane="43546460#2_1" departPos="6.23" departSpeed="0.00" departDelay="0.00" arrival="172.00" arrivalLane="671642315_1" arrivalPos="17.80" arrivalSpeed="10.30" duration="38.00" routeLength="299.96" waitingTime="0.00" waitingCount="0" stopTime="0.00" timeLoss="12.64" rerouteNo="0" devices="tripinfo_veh335" vType="emergency" speedFactor="1.00" vaporized=""/>
    <tripinfo id="veh58" depart="24.00" departLane="-250295383#3_1" departPos="5.76" departSpeed="0.00" departDelay="0.80" arrival="174.00" arrivalLane="48736666#2_1" arrivalPos="56.15" arrivalSpeed="12.23" duration="150.00" routeLength="1268.31" waitingTime="32.00" waitingCount="1" stopTime="0.00" timeLoss="50.76" rerouteNo="0" devices="tripinfo_veh58" vType="passenger" speedFactor="0.95" vaporized=""/>
    <tripinfo id="veh230" depart="92.00" departLane="-43573547#3_1" departPos="41.68" departSpeed="0.00" departDelay="0.00" arrival="174.00" arrivalLane="859732803#1_0" arrivalPos="26.12" arrivalSpeed="3.90" duration="82.00" routeLength="735.66" waitingTime="0.00" waitingCount="0" stopTime="0.00" timeLoss="11.38" rerouteNo="0" devices="tripinfo_veh230" vType="passenger" speedFactor="0.85" vaporized=""/>
    <personinfo id="ped25" depart="125.00" type="DEFAULT_PEDTYPE" speedFactor="1.07" duration="52.00" waitingTime="0.00" timeLoss="5.80" traveltime="52.00">
        <walk depart="125.00" departPos="0.00" arrival="177.00" arrivalPos="28.94" duration="52.00" routeLength="68.68" timeLoss="5.80" maxSpeed="1.49"/>
    </personinfo>
    <tripinfo id="veh62" depart="25.00" departLane="-40236153#1_1" departPos="70.46" departSpeed="0.00" departDelay="0.20" arrival="178.00" arrivalLane="353939570#8_2" arrivalPos="81.94" arrivalSpeed="15.10" duration="153.00" routeLength="1371.50" waitingTime="27.00" waitingCount="1" stopTime="0.00" timeLoss="59.78" rerouteNo="0" devices="tripinfo_veh62" vType="passenger" speedFactor="1.12" vaporized=""/>
    <tripinfo id="veh125" depart="50.00" departLane="996489799#2_0" departPos="28.52" departSpeed="0.00" departDelay="0.00" arrival="179.00" arrivalLane="859732801#1_1" arrivalPos="25.05" arrivalSpeed="12.15" duration="129.00" routeLength="973.56" waitingTime="32.00" waitingCount="1" stopTime="0.00" timeLoss="48.61" rerouteNo="0" devices="tripinfo_veh125" vType="passenger" speedFactor="0.97" vaporized=""/>
    <tripinfo id="veh47" depart="19.00" departLane="-43544179#9_1" departPos="97.88" departSpeed="0.00" departDelay="0.20" arrival="180.00" arrivalLane="-578560104#5_1" arrivalPos="72.53" arrivalSpeed="13.32" duration="161.00" routeLength="1729.45" waitingTime="0.00" waitingCount="0" stopTime="0.00" timeLoss="33.20" rerouteNo="0" devices="tripinfo_veh47" vType="motorcycle" speedFactor="1.00" vaporized=""/>
    <tripinfo id="veh99" depart="40.00" departLane="48778446#1_1" departPos="15.36" departSpeed="0.00" departDelay="0.40" arrival="182.00" arrivalLane="647610982#0_1" arrivalPos="197.95" arrivalSpeed="13.24" duration="142.00" routeLength="1504.58" waitingTime="6.00" waitingCount="1" stopTime="0.00" timeLoss="28.42" rerouteNo="0" devices="tripinfo_veh99" vType="motorcycle" speedFactor="0.98" vaporized=""/>
    <tripinfo id="veh275" depart="110.00" departLane="-43544138#0_1" departPos="22.44" departSpeed="0.00" departDelay="0.00" arrival="184.00" arrivalLane="-647226815#1_1" arrivalPos="42.64" arrivalSpeed="11.93" duration="74.00" routeLength="711.94" waitingTime="0.00" waitingCount="0" stopTime="0.00" timeLoss="14.30" rerouteNo="0" devices="tripinfo_veh275" vType="passenger" speedFactor="0.90" vaporized=""/>
    <tripinfo id="veh148" depart="60.00" departLane="33913538#9_1" departPos="3.30" departSpeed="0.00" departDelay="0.80" arrival="185.00" arrivalLane="48778457#0_1" arrivalPos="3.64" arrivalSpeed="8.03" duration="125.00" routeLength="1230.49" waitingTime="9.00" waitingCount="1" stopTime="0.00" timeLoss="32.05" rerouteNo="0" devices="tripinfo_veh148" vType="motorcycle" speedFactor="0.98" vaporized=""/>
    <tripinfo id="veh72" depart="29.00" departLane="-1136289991_1" departPos="8.49" departSpeed="0.00" departDelay="0.20" arrival="186.00" arrivalLane="1158942155_1" arrivalPos="54.59" arrivalSpeed="9.16" duration="157.00" routeLength="1247.09" waitingTime="27.00" waitingCount="2" stopTime="0.00" timeLoss="55.32" rerouteNo="0" devices="tripinfo_veh72" vType="motorcycle" speedFactor="0.94" vaporized=""/>
    <tripinfo id="veh170" depart="68.00" departLane="383582514_1" departPos="108.73" departSpeed="0.00" departDelay="0.00" arrival="188.00" arrivalLane="-48778505#0_1" arrivalPos="221.68" arrivalSpeed="13.40" duration="120.00" routeLength="1399.34" waitingTime="0.00" waitingCount="0" stopTime="0.00" timeLoss="12.03" rerouteNo="0" devices="tripinfo_veh170" vType="emergency" speedFactor="1.00" vaporized=""/>
    <tripinfo id="veh191" depart="77.00" departLane="994066252#1_0" departPos="45.08" departSpeed="0.00" departDelay="0.60" arrival="188.00" arrivalLane="671642321_1" arrivalPos="87.26" arrivalSpeed="4.04" duration="111.00" routeLength="685.98" waitingTime="22.00" waitingCount="2" stopTime="0.00" timeLoss="41.20" rerouteNo="0" devices="tripinfo_veh191" vType="delivery" speedFactor="0.93" vaporized=""/>
    <tripinfo id="veh104" depart="42.00" departLane="40265793#0_1" departPos="68.96" departSpeed="0.00" departDelay="0.40" arrival="189.00" arrivalLane="-1136119745_1" arrivalPos="22.49" arrivalSpeed="11.49" duration="147.00" routeLength="1381.53" waitingTime="0.00" waitingCount="0" stopTime="0.00" timeLoss="22.16" rerouteNo="0" devices="tripinfo_veh104" vType="passenger" speedFactor="0.89" vaporized=""/>
    <tripinfo id="veh357" depart="143.00" departLane="-48778500#1_1" departPos="80.47" departSpeed="0.00" departDelay="0.20" arrival="191.00" arrivalLane="859734514#1_0" arrivalPos="56.51" arrivalSpeed="7.28" duration="48.00" routeLength="412.06" waitingTime="0.00" waitingCount="0" stopTime="0.00" timeLoss="13.66" rerouteNo="0" devices="tripinfo_veh357" vType="passenger" speedFactor="1.32" vaporized=""/>
    <tripinfo id="veh1" depart="1.00" departLane="-48778475#0_1" departPos="2.81" departSpeed="0.00" departDelay="0.60" arrival="192.00" arrivalLane="1136279388_0" arrivalPos="33.51" arrivalSpeed="5.44" duration="191.00" routeLength="1999.97" waitingTime="18.00" waitingCount="1" stopTime="0.00" timeLoss="50.87" rerouteNo="0" devices="tripinfo_veh1" vType="passenger" speedFactor="1.08" vaporized=""/>
    <tripinfo id="veh12" depart="5.00" departLane="33913538#0_1" departPos="69.10" departSpeed="0.00" departDelay="0.20" arrival="193.00" arrivalLane="-859738688_0" arrivalPos="223.29" arrivalSpeed="4.17" duration="188.00" routeLength="1651.70" waitingTime="2.00" waitingCount="1" stopTime="0.00" timeLoss="26.50" rerouteNo="0" devices="tripinfo_veh12" vType="passenger" speedFactor="0.90" vaporized=""/>
    <tripinfo id="veh186" depart="75.00" departLane="-143207979#2_1" departPos="35.76" departSpeed="0.00" departDelay="0.60" arrival="193.00" arrivalLane="-43544179#10_1" arrivalPos="22.73" arrivalSpeed="11.90" duration="118.00" routeLength="1039.42" waitingTime="2.00" waitingCount="2" stopTime="0.00" timeLoss="29.70" rerouteNo="0" devices="tripinfo_veh186" vType="passenger" speedFactor="0.91" vaporized=""/>
    <tripinfo id="veh128" depart="52.00" departLane="48797772_1" departPos="25.34" departSpeed="0.00" departDelay="0.80" arrival="194.00" arrivalLane="-1205541342_1" arrivalPos="22.37" arrivalSpeed="4.36" duration="142.00" routeLength="1473.19" waitingTime="0.00" waitingCount="0" stopTime="0.00" timeLoss="18.93" rerouteNo="0" devices="tripinfo_veh128" vType="passenger" speedFactor="0.94" vaporized=""/>
    <tripinfo id="veh285" depart="114.00" departLane="-43544197#6_1" departPos="17.19" departSpeed="0.00" departDelay="0.00" arrival="195.00" arrivalLane="-383582512#0_0" arrivalPos="35.67" arrivalSpeed="4.33" duration="81.00" routeLength="761.64" waitingTime="0.00" waitingCount="0" stopTime="0.00" timeLoss="13.37" rerouteNo="0" devices="tripinfo_veh285" vType="passenger" speedFactor="0.98" vaporized=""/>
    <tripinfo id="veh286" depart="115.00" departLane="-859732803#1_0" departPos="4.00" departSpeed="0.00" departDelay="0.60" arrival="197.00" arrivalLane="-40329447_1" arrivalPos="12.91" arrivalSpeed="12.39" duration="82.00" routeLength="592.23" waitingTime="12.00" waitingCount="2" stopTime="0.00" timeLoss="40.87" rerouteNo="0" devices="tripinfo_veh286" vType="passenger" speedFactor="1.26" vaporized=""/>
    <tripinfo id="veh17" depart="7.00" departLane="E41_1" departPos="64.84" departSpeed="0.00" departDelay="0.20" arrival="198.00" arrivalLane="40345956#2_1" arrivalPos="20.97" arrivalSpeed="13.55" duration="191.00" routeLength="1800.35" waitingTime="31.00" waitingCount="2" stopTime="0.00" timeLoss="60.25" rerouteNo="0" devices="tripinfo_veh17" vType="passenger" speedFactor="1.02" vaporized=""/>
    <tripinfo id="veh88" depart="36.00" departLane="-40345956#1_1" departPos="71.05" departSpeed="0.00" departDelay="0.80" arrival="198.00" arrivalLane="-40314853#1_1" arrivalPos="111.58" arrivalSpeed="13.58" duration="162.00" routeLength="1823.45" waitingTime="0.00" waitingCount="0" stopTime="0.00" timeLoss="23.54" rerouteNo="0" devices="tripinfo_veh88" vType="passenger" speedFactor="0.98" vaporized=""/>
    <tripinfo id="veh113" depart="46.00" departLane="43546105#2_1" departPos="0.91" departSpeed="0.00" departDelay="0.80" arrival="198.00" arrivalLane="-383582507_0" arrivalPos="62.46" arrivalSpeed="2.06" duration="152.00" routeLength="1440.36" waitingTime="0.00" waitingCount="0" stopTime="0.00" timeLoss="24.76" rerouteNo="0" devices="tripinfo_veh113" vType="motorcycle" speedFactor="1.04" vaporized=""/>
    <tripinfo id="veh39" depart="16.00" departLane="40265777#1_1" departPos="4.38" departSpeed="0.00" departDelay="0.40" arrival="204.00" arrivalLane="-40330575#2_1" arrivalPos="59.38" arrivalSpeed="14.11" duration="188.00" routeLength="1631.79" waitingTime="35.00" waitingCount="2" stopTime="0.00" timeLoss="75.84" rerouteNo="0" devices="tripinfo_veh39" vType="passenger" speedFactor="1.09" vaporized=""/>
    <tripinfo id="veh137" depart="55.00" departLane="-43544588#1_1" departPos="32.26" departSpeed="0.00" departDelay="0.20" arrival="204.00" arrivalLane="48778498#1_1" arrivalPos="23.68" arrivalSpeed="11.89" duration="149.00" routeLength="1607.76" waitingTime="3.00" waitingCount="1" stopTime="0.00" timeLoss="40.21" rerouteNo="0" devices="tripinfo_veh137" vType="passenger" speedFactor="1.13" vaporized=""/>
    <tripinfo id="veh143" depart="58.00" departLane="-1135772297_0" departPos="4.20" departSpeed="0.00" departDelay="0.80" arrival="204.00" arrivalLane="-48778441#0_1" arrivalPos="36.99" arrivalSpeed="12.00" duration="146.00" routeLength="1342.83" waitingTime="0.00" waitingCount="0" stopTime="0.00" timeLoss="25.89" rerouteNo="0" devices="tripinfo_veh143" vType="passenger" speedFactor="0.90" vaporized=""/>
    <tripinfo id="veh79" depart="32.00" departLane="33909936#1_1" departPos="33.63" departSpeed="0.00" departDelay="0.40" arrival="205.00" arrivalLane="40236144#2_1" arrivalPos="51.61" arrivalSpeed="14.67" duration="173.00" routeLength="1609.62" waitingTime="46.00" waitingCount="1" stopTime="0.00" timeLoss="64.90" rerouteNo="0" devices="tripinfo_veh79" vType="passenger" speedFactor="1.10" vaporized=""/>
    <tripinfo id="veh359" depart="144.00" departLane="-48736658_1" departPos="7.91" departSpeed="0.00" departDelay="0.40" arrival="207.00" arrivalLane="48736619_1" arrivalPos="65.02" arrivalSpeed="12.76" duration="63.00" routeLength="601.60" waitingTime="0.00" waitingCount="0" stopTime="0.00" timeLoss="17.60" rerouteNo="0" devices="tripinfo_veh359" vType="passenger" speedFactor="0.99" vaporized=""/>