<?xml version="1.0" encoding="UTF-8"?>

<!-- generated on 2025-06-12 12:32:39 by Eclipse SUMO sumo Version 1.22.0
<sumoConfiguration xmlns:xsi="http://www.w3.org/2001/XMLSchema-instance" xsi:noNamespaceSchemaLocation="http://sumo.dlr.de/xsd/sumoConfiguration.xsd">

    <input>
        <net-file value="osm.net.xml"/>
        <route-files value="full.rou.xml, ped.rou.xml, truck.rou.xml"/>
        <additional-files value="osm.poly.xml, vtypes.xml"/>
    </input>

    <output>
        <summary-output value="summary.xml"/>
        <tripinfo-output value="E:\licenta\oras-mediu\2025-06-05-11-45-23\baseline_outputs\tripinfo_baseline_ep14.xml"/>
    </output>

    <processing>
        <ignore-route-errors value="true"/>
        <tls.actuated.jam-threshold value="30"/>
    </processing>

    <routing>
        <device.rerouting.adaptation-steps value="18"/>
        <device.rerouting.adaptation-interval value="10"/>
    </routing>

    <report>
        <verbose value="true"/>
        <duration-log.statistics value="true"/>
        <no-step-log value="true"/>
    </report>

    <traci_server>
        <remote-port value="64515"/>
    </traci_server>

    <gui_only>
        <gui-settings-file value="osm.view.xml"/>
    </gui_only>

</sumoConfiguration>
-->

<tripinfos xmlns:xsi="http://www.w3.org/2001/XMLSchema-instance" xsi:noNamespaceSchemaLocation="http://sumo.dlr.de/xsd/tripinfo_file.xsd">
    <tripinfo id="veh18" depart="13.00" departLane="-43544138#5_1" departPos="16.23" departSpeed="0.00" departDelay="0.76" arrival="54.00" arrivalLane="-48778520_1" arrivalPos="53.92" arrivalSpeed="12.88" duration="41.00" routeLength="367.75" waitingTime="0.00" waitingCount="0" stopTime="0.00" timeLoss="12.04" rerouteNo="0" devices="tripinfo_veh18" vType="passenger" speedFactor="1.01" vaporized=""/>
    <tripinfo id="veh0" depart="0.00" departLane="48778489#3_2" departPos="124.95" departSpeed="0.00" departDelay="0.00" arrival="67.00" arrivalLane="-48778504_1" arrivalPos="189.55" arrivalSpeed="11.77" duration="67.00" routeLength="713.60" waitingTime="0.00" waitingCount="0" stopTime="0.00" timeLoss="11.72" rerouteNo="0" devices="tripinfo_veh0" vType="motorcycle" speedFactor="0.98" vaporized=""/>
    <tripinfo id="veh21" depart="15.00" departLane="-43544138#6_1" departPos="26.13" departSpeed="0.00" departDelay="0.72" arrival="67.00" arrivalLane="43544184#4_1" arrivalPos="17.47" arrivalSpeed="14.63" duration="52.00" routeLength="579.39" waitingTime="0.00" waitingCount="0" stopTime="0.00" timeLoss="13.01" rerouteNo="0" devices="tripinfo_veh21" vType="passenger" speedFactor="1.13" vaporized=""/>
    <tripinfo id="veh59" depart="41.00" departLane="-671642318#1_1" departPos="24.56" departSpeed="0.00" departDelay="0.88" arrival="67.00" arrivalLane="671642318#0_1" arrivalPos="87.54" arrivalSpeed="14.76" duration="26.00" routeLength="213.62" waitingTime="0.00" waitingCount="0" stopTime="0.00" timeLoss="9.27" rerouteNo="0" devices="tripinfo_veh59" vType="passenger" speedFactor="1.12" vaporized=""/>
    <tripinfo id="veh2" depart="2.00" departLane="-43544179#3_1" departPos="74.77" departSpeed="0.00" departDelay="0.64" arrival="101.00" arrivalLane="40265778#0_2" arrivalPos="145.00" arrivalSpeed="13.62" duration="99.00" routeLength="1191.01" waitingTime="0.00" waitingCount="0" stopTime="0.00" timeLoss="16.72" rerouteNo="0" devices="tripinfo_veh2" vType="passenger" speedFactor="1.08" vaporized=""/>
    <tripinfo id="veh26" depart="18.00" departLane="48778493#0_1" departPos="6.04" departSpeed="0.00" departDelay="0.32" arrival="113.00" arrivalLane="43573547#6_1" arrivalPos="56.24" arrivalSpeed="13.20" duration="95.00" routeLength="966.78" waitingTime="0.00" waitingCount="0" stopTime="0.00" timeLoss="15.64" rerouteNo="0" devices="tripinfo_veh26" vType="passenger" speedFactor="0.97" vaporized=""/>
    <tripinfo id="veh22" depart="15.00" departLane="353939570#9_2" departPos="51.68" departSpeed="0.00" departDelay="0.04" arrival="125.00" arrivalLane="40334245#0_1" arrivalPos="87.98" arrivalSpeed="12.07" duration="110.00" routeLength="1067.47" waitingTime="0.00" waitingCount="0" stopTime="0.00" timeLoss="18.00" rerouteNo="0" devices="tripinfo_veh22" vType="passenger" speedFactor="0.89" vaporized=""/>
    <tripinfo id="veh40" depart="28.00" departLane="222605084#4_1" departPos="6.47" departSpeed="0.00" departDelay="0.80" arrival="127.00" arrivalLane="-1250915726_1" arrivalPos="293.03" arrivalSpeed="6.49" duration="99.00" routeLength="549.92" waitingTime="0.00" waitingCount="0" stopTime="0.00" timeLoss="13.50" rerouteNo="0" devices="tripinfo_veh40" vType="passenger" speedFactor="1.17" vaporized=""/>
    <tripinfo id="veh46" depart="32.00" departLane="48778489#3_1" departPos="111.90" departSpeed="0.00" departDelay="0.72" arrival="129.00" arrivalLane="-1250915720#3_1" arrivalPos="2.51" arrivalSpeed="4.52" duration="97.00" routeLength="951.79" waitingTime="0.00" waitingCount="0" stopTime="0.00" timeLoss="13.68" rerouteNo="0" devices="tripinfo_veh46" vType="passenger" speedFactor="1.02" vaporized=""/>
    <tripinfo id="veh121" depart="83.00" departLane="984521611#0_0" departPos="1.05" departSpeed="0.00" departDelay="0.72" arrival="129.00" arrivalLane="48778464#1_1" arrivalPos="10.83" arrivalSpeed="14.48" duration="46.00" routeLength="358.83" waitingTime="0.00" waitingCount="0" stopTime="0.00" timeLoss="9.02" rerouteNo="0" devices="tripinfo_veh121" vType="passenger" speedFactor="1.11" vaporized=""/>
    <tripinfo id="veh29" depart="20.00" departLane="-E34_2" departPos="3.32" departSpeed="0.00" departDelay="0.28" arrival="131.00" arrivalLane="-48736632#0_1" arrivalPos="98.98" arrivalSpeed="12.43" duration="111.00" routeLength="1223.31" waitingTime="0.00" waitingCount="0" stopTime="0.00" timeLoss="13.79" rerouteNo="0" devices="tripinfo_veh29" vType="passenger" speedFactor="0.94" vaporized=""/>
    <personinfo id="ped14" depart="70.00" type="DEFAULT_PEDTYPE" speedFactor="1.00" duration="65.00" waitingTime="0.00" timeLoss="6.48" traveltime="65.00">
        <walk depart="70.00" departPos="0.00" arrival="135.00" arrivalPos="26.32" duration="65.00" routeLength="80.94" timeLoss="6.48" maxSpeed="1.38"/>
    </personinfo>
    <tripinfo id="veh34" depart="24.00" departLane="-994065254_0" departPos="48.57" departSpeed="0.00" departDelay="0.88" arrival="136.00" arrivalLane="-383582505_0" arrivalPos="120.02" arrivalSpeed="2.72" duration="112.00" routeLength="843.93" waitingTime="0.00" waitingCount="0" stopTime="0.00" timeLoss="17.55" rerouteNo="0" devices="tripinfo_veh34" vType="passenger" speedFactor="1.04" vaporized=""/>
    <tripinfo id="veh8" depart="6.00" departLane="48778431#2_2" departPos="34.69" departSpeed="0.00" departDelay="0.56" arrival="140.00" arrivalLane="-43546053#0_1" arrivalPos="315.83" arrivalSpeed="12.50" duration="134.00" routeLength="1394.16" waitingTime="0.00" waitingCount="0" stopTime="0.00" timeLoss="18.35" rerouteNo="0" devices="tripinfo_veh8" vType="passenger" speedFactor="0.90" vaporized=""/>
    <tripinfo id="veh37" depart="26.00" departLane="-1250915720#6_1" departPos="6.43" departSpeed="0.00" departDelay="0.84" arrival="140.00" arrivalLane="-40334245#1_1" arrivalPos="44.55" arrivalSpeed="12.07" duration="114.00" routeLength="879.81" waitingTime="0.00" waitingCount="0" stopTime="0.00" timeLoss="14.54" rerouteNo="0" devices="tripinfo_veh37" vType="passenger" speedFactor="0.95" vaporized=""/>
    <tripinfo id="veh68" depart="47.00" departLane="222609004#0_1" departPos="0.78" departSpeed="0.00" departDelay="0.76" arrival="141.00" arrivalLane="-40330575#2_1" arrivalPos="59.38" arrivalSpeed="12.92" duration="94.00" routeLength="1046.72" waitingTime="0.00" waitingCount="0" stopTime="0.00" timeLoss="15.03" rerouteNo="0" devices="tripinfo_veh68" vType="passenger" speedFactor="0.98" vaporized=""/>
    <tripinfo id="veh119" depart="81.00" departLane="48736624#2_1" departPos="0.02" departSpeed="0.00" departDelay="0.08" arrival="141.00" arrivalLane="48736624#0_1" arrivalPos="117.89" arrivalSpeed="12.96" duration="60.00" routeLength="434.13" waitingTime="7.00" waitingCount="2" stopTime="0.00" timeLoss="25.60" rerouteNo="0" devices="tripinfo_veh119" vType="passenger" speedFactor="1.02" vaporized=""/>
    <tripinfo id="veh33" depart="23.00" departLane="1136017144_0" departPos="0.33" departSpeed="0.00" departDelay="0.56" arrival="142.00" arrivalLane="75628811#1_1" arrivalPos="166.06" arrivalSpeed="14.19" duration="119.00" routeLength="637.64" waitingTime="24.00" waitingCount="1" stopTime="0.00" timeLoss="47.95" rerouteNo="0" devices="tripinfo_veh33" vType="passenger" speedFactor="1.07" vaporized=""/>
    <tripinfo id="veh64" depart="44.00" departLane="40299739#3_1" departPos="3.22" departSpeed="0.00" departDelay="0.48" arrival="143.00" arrivalLane="48736613#4_1" arrivalPos="22.22" arrivalSpeed="11.52" duration="99.00" routeLength="935.29" waitingTime="3.00" waitingCount="1" stopTime="0.00" timeLoss="19.90" rerouteNo="0" devices="tripinfo_veh64" vType="passenger" speedFactor="0.90" vaporized=""/>
    <tripinfo id="veh118" depart="81.00" departLane="33909936#3_1" departPos="6.07" departSpeed="0.00" departDelay="0.76" arrival="152.00" arrivalLane="-48778500#1_1" arrivalPos="81.60" arrivalSpeed="12.80" duration="71.00" routeLength="569.78" waitingTime="12.00" waitingCount="1" stopTime="0.00" timeLoss="27.25" rerouteNo="0" devices="tripinfo_veh118" vType="emergency" speedFactor="1.00" vaporized=""/>
    <tripinfo id="veh17" depart="12.00" departLane="48778504_1" departPos="131.26" departSpeed="0.00" departDelay="0.44" arrival="158.00" arrivalLane="945793485#1_1" arrivalPos="18.52" arrivalSpeed="11.09" duration="146.00" routeLength="1492.22" waitingTime="0.00" waitingCount="0" stopTime="0.00" timeLoss="20.63" rerouteNo="0" devices="tripinfo_veh17" vType="passenger" speedFactor="0.89" vaporized=""/>
    <tripinfo id="veh5" depart="4.00" departLane="48736613#3_1" departPos="31.80" departSpeed="0.00" departDelay="0.60" arrival="160.00" arrivalLane="354252039#1_1" arrivalPos="19.16" arrivalSpeed="13.64" duration="156.00" routeLength="1134.51" waitingTime="60.00" waitingCount="1" stopTime="0.00" timeLoss="76.32" rerouteNo="0" devices="tripinfo_veh5" vType="delivery" speedFactor="1.05" vaporized=""/>
    <tripinfo id="veh32" depart="22.00" departLane="-40330571#0_1" departPos="8.67" departSpeed="0.00" departDelay="0.24" arrival="163.00" arrivalLane="-40236144#3_1" arrivalPos="83.77" arrivalSpeed="13.95" duration="141.00" routeLength="848.23" waitingTime="52.00" waitingCount="2" stopTime="0.00" timeLoss="78.57" rerouteNo="0" devices="tripinfo_veh32" vType="passenger" speedFactor="1.03" vaporized=""/>
    <tripinfo id="veh7" depart="5.00" departLane="859728206_0" departPos="9.33" departSpeed="0.00" departDelay="0.24" arrival="165.00" arrivalLane="222609002#3_1" arrivalPos="89.31" arrivalSpeed="14.34" duration="160.00" routeLength="1990.66" waitingTime="0.00" waitingCount="0" stopTime="0.00" timeLoss="17.20" rerouteNo="0" devices="tripinfo_veh7" vType="passenger" speedFactor="1.12" vaporized=""/>
    <tripinfo id="veh139" depart="95.00" departLane="40304754#5_1" departPos="142.40" departSpeed="0.00" departDelay="0.48" arrival="166.00" arrivalLane="40265775#1_1" arrivalPos="76.38" arrivalSpeed="15.35" duration="71.00" routeLength="746.35" waitingTime="2.00" waitingCount="1" stopTime="0.00" timeLoss="19.88" rerouteNo="0" devices="tripinfo_veh139" vType="passenger" speedFactor="1.13" vaporized=""/>
    <tripinfo id="veh60" depart="41.00" departLane="647640187_0" departPos="16.65" departSpeed="0.00" departDelay="0.20" arrival="170.00" arrivalLane="E35_1" arrivalPos="178.51" arrivalSpeed="13.04" duration="129.00" routeLength="961.85" waitingTime="29.00" waitingCount="1" stopTime="0.00" timeLoss="50.60" rerouteNo="0" devices="tripinfo_veh60" vType="passenger" speedFactor="1.03" vaporized=""/>
    <tripinfo id="veh230" depart="157.00" departLane="-222605084#5_1" departPos="1.11" departSpeed="0.00" departDelay="0.60" arrival="170.00" arrivalLane="-222605084#3_1" arrivalPos="1.86" arrivalSpeed="4.17" duration="13.00" routeLength="50.59" waitingTime="0.00" waitingCount="0" stopTime="0.00" timeLoss="2.61" rerouteNo="0" devices="tripinfo_veh230" vType="passenger" speedFactor="0.95" vaporized=""/>
    <tripinfo id="veh25" depart="17.00" departLane="-250295380#1_1" departPos="59.60" departSpeed="0.00" departDelay="0.00" arrival="172.00" arrivalLane="-48778494#0_1" arrivalPos="50.02" arrivalSpeed="13.32" duration="155.00" routeLength="1680.14" waitingTime="0.00" waitingCount="0" stopTime="0.00" timeLoss="26.87" rerouteNo="0" devices="tripinfo_veh25" vType="passenger" speedFactor="0.99" vaporized=""/>
    <tripinfo id="veh41" depart="28.00" departLane="43544179#4_1" departPos="28.42" departSpeed="0.00" departDelay="0.12" arrival="173.00" arrivalLane="48778508#5_1" arrivalPos="31.95" arrivalSpeed="12.99" duration="145.00" routeLength="1595.27" waitingTime="5.00" waitingCount="1" stopTime="0.00" timeLoss="26.75" rerouteNo="0" devices="tripinfo_veh41" vType="passenger" speedFactor="1.05" vaporized=""/>
    <tripinfo id="veh160" depart="109.00" departLane="-48778475#2_1" departPos="6.52" departSpeed="0.00" departDelay="0.20" arrival="174.00" arrivalLane="-48736646#0_1" arrivalPos="88.89" arrivalSpeed="14.04" duration="65.00" routeLength="698.57" waitingTime="0.00" waitingCount="0" stopTime="0.00" timeLoss="15.37" rerouteNo="0" devices="tripinfo_veh160" vType="passenger" speedFactor="1.07" vaporized=""/>
    <tripinfo id="veh53" depart="37.00" departLane="994066251#1_0" departPos="3.03" departSpeed="0.00" departDelay="0.96" arrival="177.00" arrivalLane="43546506#0_1" arrivalPos="297.69" arrivalSpeed="12.10" duration="140.00" routeLength="1474.38" waitingTime="1.00" waitingCount="1" stopTime="0.00" timeLoss="19.77" rerouteNo="0" devices="tripinfo_veh53" vType="passenger" speedFactor="0.91" vaporized=""/>
    <tripinfo id="veh107" depart="73.00" departLane="1136283381_1" departPos="13.78" departSpeed="0.00" departDelay="0.24" arrival="177.00" arrivalLane="40266907#1_1" arrivalPos="33.57" arrivalSpeed="13.09" duration="104.00" routeLength="1023.88" waitingTime="0.00" waitingCount="0" stopTime="0.00" timeLoss="16.50" rerouteNo="0" devices="tripinfo_veh107" vType="passenger" speedFactor="1.03" vaporized=""/>
    <tripinfo id="veh13" depart="9.00" departLane="-48778508#5_1" departPos="35.21" departSpeed="0.00" departDelay="0.16" arrival="178.00" arrivalLane="40236164_1" arrivalPos="161.97" arrivalSpeed="13.42" duration="169.00" routeLength="1877.30" waitingTime="0.00" waitingCount="0" stopTime="0.00" timeLoss="18.40" rerouteNo="0" devices="tripinfo_veh13" vType="delivery" speedFactor="0.97" vaporized=""/>
    <tripinfo id="veh50" depart="34.00" departLane="33913538#1_1" departPos="211.14" departSpeed="0.00" departDelay="0.00" arrival="178.00" arrivalLane="48736614#0_1" arrivalPos="85.72" arrivalSpeed="12.95" duration="144.00" routeLength="1550.91" waitingTime="6.00" waitingCount="1" stopTime="0.00" timeLoss="28.45" rerouteNo="0" devices="tripinfo_veh50" vType="delivery" speedFactor="0.99" vaporized=""/>
    <tripinfo id="veh184" depart="126.00" departLane="383582506_0" departPos="6.79" departSpeed="0.00" departDelay="0.88" arrival="181.00" arrivalLane="-43546935#0_1" arrivalPos="223.94" arrivalSpeed="13.62" duration="55.00" routeLength="488.24" waitingTime="0.00" waitingCount="0" stopTime="0.00" timeLoss="10.93" rerouteNo="0" devices="tripinfo_veh184" vType="motorcycle" speedFactor="1.00" vaporized=""/>
    <tripinfo id="veh120" depart="82.00" departLane="48778526_1" departPos="12.58" departSpeed="0.00" departDelay="0.40" arrival="183.00" arrivalLane="648082196_1" arrivalPos="93.22" arrivalSpeed="13.54" duration="101.00" routeLength="700.79" waitingTime="26.00" waitingCount="1" stopTime="0.00" timeLoss="48.21" rerouteNo="0" devices="tripinfo_veh120" vType="passenger" speedFactor="1.06" vaporized=""/>
    <tripinfo id="veh71" depart="49.00" departLane="-48736612#2_1" departPos="41.62" departSpeed="0.00" departDelay="0.72" arrival="185.00" arrivalLane="-1136017144_0" arrivalPos="13.63" arrivalSpeed="4.51" duration="136.00" routeLength="771.89" waitingTime="7.00" waitingCount="2" stopTime="0.00" timeLoss="33.02" rerouteNo="0" devices="tripinfo_veh71" vType="passenger" speedFactor="0.83" vaporized=""/>
    <tripinfo id="veh42" depart="29.00" departLane="33909936#2_1" departPos="39.57" departSpeed="0.00" departDelay="0.44" arrival="186.00" arrivalLane="-945793491#0_1" arrivalPos="34.62" arrivalSpeed="4.82" duration="157.00" routeLength="1290.82" waitingTime="4.00" waitingCount="2" stopTime="0.00" timeLoss="36.65" rerouteNo="0" devices="tripinfo_veh42" vType="motorcycle" speedFactor="1.00" vaporized=""/>
    <tripinfo id="veh58" depart="40.00" departLane="1001108554_1" departPos="2.76" departSpeed="0.00" departDelay="0.56" arrival="187.00" arrivalLane="-25379984#2_1" arrivalPos="135.87" arrivalSpeed="13.54" duration="147.00" routeLength="1338.73" waitingTime="3.00" waitingCount="2" stopTime="0.00" timeLoss="32.43" rerouteNo="0" devices="tripinfo_veh58" vType="passenger" speedFactor="1.06" vaporized=""/>
    <tripinfo id="veh145" depart="99.00" departLane="-48736637_1" departPos="5.58" departSpeed="0.00" departDelay="0.40" arrival="187.00" arrivalLane="-176279225#0_1" arrivalPos="70.91" arrivalSpeed="11.78" duration="88.00" routeLength="906.11" waitingTime="1.00" waitingCount="1" stopTime="0.00" timeLoss="13.16" rerouteNo="0" devices="tripinfo_veh145" vType="passenger" speedFactor="0.90" vaporized=""/>
    <tripinfo id="veh140" depart="96.00" departLane="1250915723#0_1" departPos="11.42" departSpeed="0.00" departDelay="0.80" arrival="188.00" arrivalLane="-353939570#9_1" arrivalPos="72.93" arrivalSpeed="12.39" duration="92.00" routeLength="695.91" waitingTime="0.00" waitingCount="0" stopTime="0.00" timeLoss="18.52" rerouteNo="0" devices="tripinfo_veh140" vType="passenger" speedFactor="0.97" vaporized=""/>
    <tripinfo id="veh73" depart="50.00" departLane="-48736640#0_1" departPos="55.69" departSpeed="0.00" departDelay="0.36" arrival="189.00" arrivalLane="647610982#2_1" arrivalPos="11.90" arrivalSpeed="14.60" duration="139.00" routeLength="1450.44" waitingTime="15.00" waitingCount="1" stopTime="0.00" timeLoss="37.07" rerouteNo="0" devices="tripinfo_veh73" vType="passenger" speedFactor="1.06" vaporized=""/>
    <tripinfo id="veh217" depart="148.00" departLane="-43544197#8_1" departPos="98.07" departSpeed="0.00" departDelay="0.44" arrival="189.00" arrivalLane="43544624#1_1" arrivalPos="93.66" arrivalSpeed="12.55" duration="41.00" routeLength="372.64" waitingTime="0.00" waitingCount="0" stopTime="0.00" timeLoss="11.11" rerouteNo="0" devices="tripinfo_veh217" vType="passenger" speedFactor="0.96" vaporized=""/>
    <tripinfo id="veh166" depart="113.00" departLane="43573547#0_1" departPos="42.05" departSpeed="0.00" departDelay="0.12" arrival="191.00" arrivalLane="-43573547#6_1" arrivalPos="56.24" arrivalSpeed="14.36" duration="78.00" routeLength="878.68" waitingTime="0.00" waitingCount="0" stopTime="0.00" timeLoss="14.13" rerouteNo="0" devices="tripinfo_veh166" vType="passenger" speedFactor="1.04" vaporized=""/>
    <tripinfo id="veh1" depart="1.00" departLane="-43546343#2_1" departPos="2.73" departSpeed="0.00" departDelay="0.32" arrival="195.00" arrivalLane="-143207982#6_1" arrivalPos="10.44" arrivalSpeed="9.77" duration="194.00" routeLength="2132.02" waitingTime="18.00" waitingCount="1" stopTime="0.00" timeLoss="46.87" rerouteNo="0" devices="tripinfo_veh1" vType="passenger" speedFactor="1.08" vaporized=""/>
    <tripinfo id="veh15" depart="11.00" departLane="-1135772296#1_0" departPos="8.68" departSpeed="0.00" departDelay="0.80" arrival="198.00" arrivalLane="48778505#2_1" arrivalPos="58.26" arrivalSpeed="14.11" duration="187.00" routeLength="1793.96" waitingTime="0.00" waitingCount="0" stopTime="0.00" timeLoss="46.74" rerouteNo="0" devices="tripinfo_veh15" vType="passenger" speedFactor="1.02" vaporized=""/>
    <tripinfo id="veh141" depart="96.00" departLane="43573547#0_1" departPos="36.66" departSpeed="0.00" departDelay="0.12" arrival="198.00" arrivalLane="-43546789#2_1" arrivalPos="71.57" arrivalSpeed="10.58" duration="102.00" routeLength="1051.94" waitingTime="0.00" waitingCount="0" stopTime="0.00" timeLoss="17.08" rerouteNo="0" devices="tripinfo_veh141" vType="motorcycle" speedFactor="0.91" vaporized=""/>
    <tripinfo id="veh99" depart="68.00" departLane="48778508#5_1" departPos="2.54" departSpeed="0.00" departDelay="0.68" arrival="199.00" arrivalLane="40265778#0_2" arrivalPos="145.00" arrivalSpeed="15.33" duration="131.00" routeLength="1337.74" waitingTime="18.00" waitingCount="1" stopTime="0.00" timeLoss="43.24" rerouteNo="0" devices="tripinfo_veh99" vType="passenger" speedFactor="1.13" vaporized=""/>
    <tripinfo id="veh264" depart="180.00" departLane="-859732801#1_1" departPos="12.66" departSpeed="0.00" departDelay="0.48" arrival="201.00" arrivalLane="859732801#1_1" arrivalPos="25.05" arrivalSpeed="12.19" duration="21.00" routeLength="144.93" waitingTime="0.00" waitingCount="0" stopTime="0.00" timeLoss="7.15" rerouteNo="0" devices="tripinfo_veh264" vType="passenger" speedFactor="1.13" vaporized=""/>
    <tripinfo id="veh142" depart="97.00" departLane="143207982#6_1" departPos="5.43" departSpeed="0.00" departDelay="0.44" arrival="205.00" arrivalLane="48736624#2_1" arrivalPos="0.20" arrivalSpeed="14.47" duration="108.00" routeLength="652.72" waitingTime="45.00" waitingCount="1" stopTime="0.00" timeLoss="63.82" rerouteNo="0" devices="tripinfo_veh142" vType="passenger" speedFactor="1.13" vaporized=""/>
    <tripinfo id="veh161" depart="110.00" departLane="43544588#0_1" departPos="95.09" departSpeed="0.00" departDelay="0.52" arrival="205.00" arrivalLane="43544202#0_1" arrivalPos="273.61" arrivalSpeed="14.74" duration="95.00" routeLength="1125.92" waitingTime="0.00" waitingCount="0" stopTime="0.00" timeLoss="18.75" rerouteNo="0" devices="tripinfo_veh161" vType="passenger" speedFactor="1.10" vaporized=""/>
    <tripinfo id="veh88" depart="60.00" departLane="40265775#1_1" departPos="23.56" departSpeed="0.00" departDelay="0.16" arrival="207.00" arrivalLane="-43546688#1_1" arrivalPos="71.52" arrivalSpeed="13.27" duration="147.00" routeLength="1016.77" waitingTime="49.00" waitingCount="1" stopTime="0.00" timeLoss="71.62" rerouteNo="0" devices="tripinfo_veh88" vType="delivery" speedFactor="1.03" vaporized=""/>
    <tripinfo id="veh39" depart="27.00" departLane="-48736613#1_1" departPos="55.13" departSpeed="0.00" departDelay="0.48" arrival="208.00" arrivalLane="-43546648#2_1" arrivalPos="81.52" arrivalSpeed="14.27" duration="181.00" routeLength="1976.41" waitingTime="28.00" waitingCount="1" stopTime="0.00" timeLoss="45.70" rerouteNo="0" devices="tripinfo_veh39" vType="passenger" speedFactor="1.06" vaporized=""/>
    <tripinfo id="veh225" depart="153.00" departLane="-1251292610_1" departPos="1.40" departSpeed="0.00" departDelay="0.00" arrival="208.00" arrivalLane="1250915722#0_1" arrivalPos="65.49" arrivalSpeed="4.30" duration="55.00" routeLength="215.82" waitingTime="2.00" waitingCount="2" stopTime="0.00" timeLoss="12.79" rerouteNo="0" devices="tripinfo_veh225" vType="delivery" speedFactor="0.93" vaporized=""/>
    <tripinfo id="veh182" depart="124.00" departLane="-48797767#2_1" departPos="3.58" departSpeed="0.00" departDelay="0.24" arrival="209.00" arrivalLane="-256684296_0" arrivalPos="80.07" arrivalSpeed="1.92" duration="85.00" routeLength="517.12" waitingTime="0.00" waitingCount="0" stopTime="0.00" timeLoss="20.64" rerouteNo="0" devices="tripinfo_veh182" vType="motorcycle" speedFactor="1.01" vaporized=""/>
    <tripinfo id="veh24" depart="17.00" departLane="43547579#4_1" departPos="45.34" departSpeed="0.00" departDelay="0.68" arrival="211.00" arrivalLane="40330575#0_1" arrivalPos="31.86" arrivalSpeed="13.41" duration="194.00" routeLength="1823.61" waitingTime="42.00" waitingCount="2" stopTime="0.00" timeLoss="74.23" rerouteNo="0" devices="tripinfo_veh24" vType="passenger" speedFactor="1.12" vaporized=""/>
    <tripinfo id="veh61" depart="42.00" departLane="-222609004#0_1" departPos="8.30" departSpeed="0.00" departDelay="0.52" arrival="212.00" arrivalLane="-E11_2" arrivalPos="23.09" arrivalSpeed="12.42" duration="170.00" routeLength="1539.23" waitingTime="22.00" waitingCount="2" stopTime="0.00" timeLoss="47.28" rerouteNo="0" devices="tripinfo_veh61" vType="passenger" speedFactor="0.92" vaporized=""/>
    <tripinfo id="veh89" depart="61.00" departLane="264868333_1" departPos="1.44" departSpeed="0.00" departDelay="0.48" arrival="213.00" arrivalLane="258551297#1_0" arrivalPos="135.94" arrivalSpeed="6.31" duration="152.00" routeLength="1155.00" waitingTime="30.00" waitingCount="3" stopTime="0.00" timeLoss="66.79" rerouteNo="0" devices="tripinfo_veh89" vType="passenger" speedFactor="1.25" vaporized=""/>
    <tripinfo id="veh243" depart="166.00" departLane="-43544001#14_1" departPos="19.10" departSpeed="0.00" departDelay="0.76" arrival="216.00" arrivalLane="-43546935#0_1" arrivalPos="223.94" arrivalSpeed="13.35" duration="50.00" routeLength="532.66" waitingTime="0.00" waitingCount="0" stopTime="0.00" timeLoss="8.37" rerouteNo="0" devices="tripinfo_veh243" vType="delivery" speedFactor="0.98" vaporized=""/>
    <tripinfo id="veh195" depart="133.00" departLane="48778500#0_1" departPos="15.52" departSpeed="0.00" departDelay="0.40" arrival="218.00" arrivalLane="1136289990_1" arrivalPos="14.40" arrivalSpeed="7.95" duration="85.00" routeLength="1029.93" waitingTime="0.00" waitingCount="0" stopTime="0.00" timeLoss="14.08" rerouteNo="0" devices="tripinfo_veh195" vType="motorcycle" speedFactor="1.14" vaporized=""/>
    <tripinfo id="veh174" depart="119.00" departLane="-1250915720#6_1" departPos="61.14" departSpeed="0.00" departDelay="0.68" arrival="220.00" arrivalLane="40345956#1_1" arrivalPos="78.47" arrivalSpeed="10.31" duration="101.00" routeLength="618.77" waitingTime="0.00" waitingCount="0" stopTime="0.00" timeLoss="13.77" rerouteNo="0" devices="tripinfo_veh174" vType="passenger" speedFactor="0.80" vaporized=""/>
    <tripinfo id="veh177" depart="121.00" departLane="-40236220#1_1" departPos="26.46" departSpeed="0.00" departDelay="0.64" arrival="221.00" arrivalLane="-40265774#0_1" arrivalPos="113.12" arrivalSpeed="14.21" duration="100.00" routeLength="1040.95" waitingTime="0.00" waitingCount="0" stopTime="0.00" timeLoss="22.06" rerouteNo="0" devices="tripinfo_veh177" vType="passenger" speedFactor="1.04" vaporized=""/>
    <tripinfo id="veh20" depart="14.00" departLane="43546648#0_1" departPos="60.28" departSpeed="0.00" departDelay="0.40" arrival="222.00" arrivalLane="-43546460#8_1" arrivalPos="96.42" arrivalSpeed="13.24" duration="208.00" routeLength="1768.41" waitingTime="66.00" waitingCount="1" stopTime="0.00" timeLoss="82.89" rerouteNo="0" devices="tripinfo_veh20" vType="passenger" speedFactor="1.03" vaporized=""/>
    <tripinfo id="veh133" depart="91.00" departLane="-48778492_1" departPos="4.19" departSpeed="0.00" departDelay="0.56" arrival="224.00" arrivalLane="48736639#1_1" arrivalPos="23.89" arrivalSpeed="16.29" duration="133.00" routeLength="1154.82" waitingTime="24.00" waitingCount="1" stopTime="0.00" timeLoss="56.55" rerouteNo="0" devices="tripinfo_veh133" vType="passenger" speedFactor="1.18" vaporized=""/>
    <tripinfo id="veh124" depart="85.00" departLane="250295383#6_1" departPos="24.99" departSpeed="0.00" departDelay="0.68" arrival="225.00" arrivalLane="-996984133_1" arrivalPos="75.36" arrivalSpeed="10.07" duration="140.00" routeLength="1652.83" waitingTime="0.00" waitingCount="0" stopTime="0.00" timeLoss="35.87" rerouteNo="0" devices="tripinfo_veh124" vType="passenger" speedFactor="1.21" vaporized=""/>
    <tripinfo id="veh4" depart="3.00" departLane="40304754#5_1" departPos="38.07" departSpeed="0.00" departDelay="0.28" arrival="229.00" arrivalLane="1015948619_0" arrivalPos="20.77" arrivalSpeed="5.50" duration="226.00" routeLength="2395.66" waitingTime="20.00" waitingCount="1" stopTime="0.00" timeLoss="46.61" rerouteNo="0" devices="tripinfo_veh4" vType="passenger" speedFactor="1.02" vaporized=""/>
    <tripinfo id="veh199" depart="136.00" departLane="-273835688_1" departPos="87.90" departSpeed="0.00" departDelay="0.68" arrival="230.00" arrivalLane="258551297#0_0" arrivalPos="10.90" arrivalSpeed="5.50" duration="94.00" routeLength="990.49" waitingTime="0.00" waitingCount="0" stopTime="0.00" timeLoss="17.87" rerouteNo="0" devices="tripinfo_veh199" vType="emergency" speedFactor="1.00" vaporized=""/>
    <tripinfo id="veh77" depart="53.00" departLane="40236259_1" departPos="86.86" departSpeed="0.00" departDelay="0.64" arrival="234.00" arrivalLane="40266907#1_1" arrivalPos="33.57" arrivalSpeed="15.00" duration="181.00" routeLength="1164.54" waitingTime="56.00" waitingCount="1" stopTime="0.00" timeLoss="99.60" rerouteNo="0" devices="tripinfo_veh77" vType="passenger" speedFactor="1.10" vaporized=""/>
    <tripinfo id="veh62" depart="43.00" departLane="-984521611#0_0" departPos="1.28" departSpeed="0.00" departDelay="0.84" arrival="236.00" arrivalLane="-383582507_0" arrivalPos="62.46" arrivalSpeed="2.48" duration="193.00" routeLength="1846.69" waitingTime="13.00" waitingCount="2" stopTime="0.00" timeLoss="44.93" rerouteNo="0" devices="tripinfo_veh62" vType="passenger" speedFactor="1.09" vaporized=""/>
    <tripinfo id="veh114" depart="78.00" departLane="48736640#0_1" departPos="42.10" departSpeed="0.00" departDelay="0.48" arrival="236.00" arrivalLane="48797765#1_1" arrivalPos="28.98" arrivalSpeed="10.69" duration="158.00" routeLength="1118.52" waitingTime="9.00" waitingCount="1" stopTime="0.00" timeLoss="52.52" rerouteNo="0" devices="tripinfo_veh114" vType="motorcycle" speedFactor="0.84" vaporized=""/>