<?xml version="1.0" encoding="UTF-8"?>

<!-- generated on 2025-06-12 12:33:50 by Eclipse SUMO sumo Version 1.22.0
<sumoConfiguration xmlns:xsi="http://www.w3.org/2001/XMLSchema-instance" xsi:noNamespaceSchemaLocation="http://sumo.dlr.de/xsd/sumoConfiguration.xsd">

    <input>
        <net-file value="osm.net.xml"/>
        <route-files value="full.rou.xml, ped.rou.xml, truck.rou.xml"/>
        <additional-files value="osm.poly.xml, vtypes.xml"/>
    </input>

    <output>
        <summary-output value="summary.xml"/>
        <tripinfo-output value="E:\licenta\oras-mediu\2025-06-05-11-45-23\baseline_outputs\tripinfo_baseline_ep20.xml"/>
    </output>

    <processing>
        <ignore-route-errors value="true"/>
        <tls.actuated.jam-threshold value="30"/>
    </processing>

    <routing>
        <device.rerouting.adaptation-steps value="18"/>
        <device.rerouting.adaptation-interval value="10"/>
    </routing>

    <report>
        <verbose value="true"/>
        <duration-log.statistics value="true"/>
        <no-step-log value="true"/>
    </report>

    <traci_server>
        <remote-port value="64551"/>
    </traci_server>

    <gui_only>
        <gui-settings-file value="osm.view.xml"/>
    </gui_only>

</sumoConfiguration>
-->

<tripinfos xmlns:xsi="http://www.w3.org/2001/XMLSchema-instance" xsi:noNamespaceSchemaLocation="http://sumo.dlr.de/xsd/tripinfo_file.xsd">
    <tripinfo id="veh53" depart="40.00" departLane="-143207979#3_1" departPos="7.27" departSpeed="0.00" departDelay="0.78" arrival="74.00" arrivalLane="-43544624#1_1" arrivalPos="93.66" arrivalSpeed="12.97" duration="34.00" routeLength="287.28" waitingTime="0.00" waitingCount="0" stopTime="0.00" timeLoss="9.00" rerouteNo="0" devices="tripinfo_veh53" vType="passenger" speedFactor="0.95" vaporized=""/>
    <tripinfo id="veh57" depart="43.00" departLane="-48778524#0_1" departPos="87.19" departSpeed="0.00" departDelay="0.82" arrival="81.00" arrivalLane="43547017#2_1" arrivalPos="56.55" arrivalSpeed="15.31" duration="38.00" routeLength="433.18" waitingTime="0.00" waitingCount="0" stopTime="0.00" timeLoss="8.34" rerouteNo="0" devices="tripinfo_veh57" vType="passenger" speedFactor="1.12" vaporized=""/>
    <tripinfo id="veh30" depart="23.00" departLane="-222608881#1_1" departPos="4.18" departSpeed="0.00" departDelay="0.80" arrival="82.00" arrivalLane="48778511_1" arrivalPos="75.86" arrivalSpeed="13.08" duration="59.00" routeLength="534.25" waitingTime="0.00" waitingCount="0" stopTime="0.00" timeLoss="17.77" rerouteNo="0" devices="tripinfo_veh30" vType="passenger" speedFactor="1.03" vaporized=""/>
    <tripinfo id="veh46" depart="35.00" departLane="43544179#4_1" departPos="4.11" departSpeed="0.00" departDelay="0.96" arrival="90.00" arrivalLane="43544184#2_1" arrivalPos="44.28" arrivalSpeed="13.05" duration="55.00" routeLength="628.83" waitingTime="0.00" waitingCount="0" stopTime="0.00" timeLoss="7.99" rerouteNo="0" devices="tripinfo_veh46" vType="passenger" speedFactor="1.00" vaporized=""/>
    <tripinfo id="veh74" depart="55.00" departLane="354252039#1_1" departPos="17.91" departSpeed="0.00" departDelay="0.24" arrival="96.00" arrivalLane="40266909#0_1" arrivalPos="56.72" arrivalSpeed="8.60" duration="41.00" routeLength="327.42" waitingTime="0.00" waitingCount="0" stopTime="0.00" timeLoss="11.00" rerouteNo="0" devices="tripinfo_veh74" vType="passenger" speedFactor="0.86" vaporized=""/>
    <tripinfo id="veh34" depart="26.00" departLane="470207092#0_1" departPos="155.59" departSpeed="0.00" departDelay="0.84" arrival="130.00" arrivalLane="48736607#1_1" arrivalPos="193.73" arrivalSpeed="13.86" duration="104.00" routeLength="1144.12" waitingTime="5.00" waitingCount="1" stopTime="0.00" timeLoss="19.16" rerouteNo="0" devices="tripinfo_veh34" vType="passenger" speedFactor="1.09" vaporized=""/>
    <tripinfo id="veh20" depart="15.00" departLane="48778446#2_1" departPos="8.01" departSpeed="0.00" departDelay="0.20" arrival="134.00" arrivalLane="40299276#1_1" arrivalPos="70.79" arrivalSpeed="12.09" duration="119.00" routeLength="1214.23" waitingTime="0.00" waitingCount="0" stopTime="0.00" timeLoss="16.30" rerouteNo="0" devices="tripinfo_veh20" vType="passenger" speedFactor="0.89" vaporized=""/>
    <tripinfo id="veh69" depart="52.00" departLane="647347140#2_1" departPos="15.06" departSpeed="0.00" departDelay="0.94" arrival="135.00" arrivalLane="-945794111_1" arrivalPos="62.47" arrivalSpeed="8.30" duration="83.00" routeLength="928.62" waitingTime="0.00" waitingCount="0" stopTime="0.00" timeLoss="11.51" rerouteNo="0" devices="tripinfo_veh69" vType="passenger" speedFactor="1.01" vaporized=""/>
    <tripinfo id="veh29" depart="22.00" departLane="-48736664#1_1" departPos="21.24" departSpeed="0.00" departDelay="0.54" arrival="136.00" arrivalLane="-174818022#1_0" arrivalPos="93.09" arrivalSpeed="4.25" duration="114.00" routeLength="482.67" waitingTime="0.00" waitingCount="0" stopTime="0.00" timeLoss="9.96" rerouteNo="0" devices="tripinfo_veh29" vType="bicycle" speedFactor="0.83" vaporized=""/>
    <tripinfo id="veh62" depart="46.00" departLane="174818022#1_0" departPos="83.87" departSpeed="0.00" departDelay="0.12" arrival="138.00" arrivalLane="48736612#5_1" arrivalPos="15.56" arrivalSpeed="13.58" duration="92.00" routeLength="812.02" waitingTime="2.00" waitingCount="1" stopTime="0.00" timeLoss="16.68" rerouteNo="0" devices="tripinfo_veh62" vType="passenger" speedFactor="1.02" vaporized=""/>
    <tripinfo id="veh154" depart="114.00" departLane="-859734514#0_0" departPos="21.74" departSpeed="0.00" departDelay="0.04" arrival="141.00" arrivalLane="48778508#1_1" arrivalPos="98.38" arrivalSpeed="14.55" duration="27.00" routeLength="249.08" waitingTime="0.00" waitingCount="0" stopTime="0.00" timeLoss="6.67" rerouteNo="0" devices="tripinfo_veh154" vType="passenger" speedFactor="1.07" vaporized=""/>
    <tripinfo id="veh89" depart="66.00" departLane="48736657#0_1" departPos="50.17" departSpeed="0.00" departDelay="0.14" arrival="148.00" arrivalLane="-40299264#2_1" arrivalPos="30.73" arrivalSpeed="10.79" duration="82.00" routeLength="750.97" waitingTime="0.00" waitingCount="0" stopTime="0.00" timeLoss="14.56" rerouteNo="0" devices="tripinfo_veh89" vType="passenger" speedFactor="0.87" vaporized=""/>
    <tripinfo id="veh105" depart="78.00" departLane="383582509_0" departPos="4.73" departSpeed="0.00" departDelay="0.30" arrival="148.00" arrivalLane="43546506#0_1" arrivalPos="297.69" arrivalSpeed="13.25" duration="70.00" routeLength="699.32" waitingTime="0.00" waitingCount="0" stopTime="0.00" timeLoss="10.56" rerouteNo="0" devices="tripinfo_veh105" vType="passenger" speedFactor="1.03" vaporized=""/>
    <tripinfo id="veh121" depart="90.00" departLane="48778487#1_1" departPos="311.46" departSpeed="0.00" departDelay="0.46" arrival="150.00" arrivalLane="43573547#1_1" arrivalPos="25.37" arrivalSpeed="13.73" duration="60.00" routeLength="662.13" waitingTime="0.00" waitingCount="0" stopTime="0.00" timeLoss="12.61" rerouteNo="0" devices="tripinfo_veh121" vType="passenger" speedFactor="1.07" vaporized=""/>
    <tripinfo id="veh148" depart="110.00" departLane="48778489#3_1" departPos="17.11" departSpeed="0.00" departDelay="0.48" arrival="150.00" arrivalLane="-945794110_1" arrivalPos="52.39" arrivalSpeed="6.53" duration="40.00" routeLength="333.94" waitingTime="0.00" waitingCount="0" stopTime="0.00" timeLoss="9.62" rerouteNo="0" devices="tripinfo_veh148" vType="passenger" speedFactor="0.93" vaporized=""/>
    <tripinfo id="veh5" depart="4.00" departLane="-354259933#3_1" departPos="44.95" departSpeed="0.00" departDelay="0.30" arrival="151.00" arrivalLane="-222608881#1_1" arrivalPos="39.96" arrivalSpeed="13.31" duration="147.00" routeLength="1611.11" waitingTime="2.00" waitingCount="1" stopTime="0.00" timeLoss="32.09" rerouteNo="0" devices="tripinfo_veh5" vType="delivery" speedFactor="1.05" vaporized=""/>
    <tripinfo id="veh60" depart="45.00" departLane="383582513_0" departPos="27.19" departSpeed="0.00" departDelay="0.60" arrival="157.00" arrivalLane="-43546519#0_1" arrivalPos="426.07" arrivalSpeed="14.69" duration="112.00" routeLength="1324.39" waitingTime="0.00" waitingCount="0" stopTime="0.00" timeLoss="17.84" rerouteNo="0" devices="tripinfo_veh60" vType="passenger" speedFactor="1.09" vaporized=""/>
    <tripinfo id="veh127" depart="94.00" departLane="-48736656#1_1" departPos="17.38" departSpeed="0.00" departDelay="0.02" arrival="165.00" arrivalLane="383582854#1_0" arrivalPos="56.91" arrivalSpeed="5.16" duration="71.00" routeLength="620.18" waitingTime="0.00" waitingCount="0" stopTime="0.00" timeLoss="13.39" rerouteNo="0" devices="tripinfo_veh127" vType="delivery" speedFactor="1.00" vaporized=""/>
    <tripinfo id="veh120" depart="89.00" departLane="-143207979#0_1" departPos="11.28" departSpeed="0.00" departDelay="0.20" arrival="167.00" arrivalLane="-43544202#2_1" arrivalPos="171.08" arrivalSpeed="12.56" duration="78.00" routeLength="825.19" waitingTime="0.00" waitingCount="0" stopTime="0.00" timeLoss="11.42" rerouteNo="0" devices="tripinfo_veh120" vType="passenger" speedFactor="0.94" vaporized=""/>
    <tripinfo id="veh135" depart="100.00" departLane="-48736655_1" departPos="9.46" departSpeed="0.00" departDelay="0.10" arrival="171.00" arrivalLane="48736614#3_1" arrivalPos="117.48" arrivalSpeed="15.16" duration="71.00" routeLength="838.51" waitingTime="0.00" waitingCount="0" stopTime="0.00" timeLoss="15.58" rerouteNo="0" devices="tripinfo_veh135" vType="passenger" speedFactor="1.13" vaporized=""/>
    <tripinfo id="veh113" depart="84.00" departLane="40236146_1" departPos="87.47" departSpeed="0.00" departDelay="0.38" arrival="174.00" arrivalLane="-48778518_1" arrivalPos="22.20" arrivalSpeed="9.15" duration="90.00" routeLength="1081.88" waitingTime="0.00" waitingCount="0" stopTime="0.00" timeLoss="15.97" rerouteNo="0" devices="tripinfo_veh113" vType="passenger" speedFactor="1.11" vaporized=""/>
    <tripinfo id="veh31" depart="23.00" departLane="-43546648#1_1" departPos="92.19" departSpeed="0.00" departDelay="0.06" arrival="180.00" arrivalLane="-48778501_1" arrivalPos="136.18" arrivalSpeed="13.86" duration="157.00" routeLength="1487.75" waitingTime="22.00" waitingCount="1" stopTime="0.00" timeLoss="51.00" rerouteNo="0" devices="tripinfo_veh31" vType="passenger" speedFactor="1.07" vaporized=""/>
    <tripinfo id="veh88" depart="66.00" departLane="-43573573#0_1" departPos="6.25" departSpeed="0.00" departDelay="0.88" arrival="180.00" arrivalLane="1250915722#3_1" arrivalPos="5.41" arrivalSpeed="6.06" duration="114.00" routeLength="1276.93" waitingTime="0.00" waitingCount="0" stopTime="0.00" timeLoss="17.41" rerouteNo="0" devices="tripinfo_veh88" vType="passenger" speedFactor="1.25" vaporized=""/>
    <tripinfo id="veh124" depart="92.00" departLane="-48778472_1" departPos="11.37" departSpeed="0.00" departDelay="0.24" arrival="180.00" arrivalLane="470210923#4_1" arrivalPos="79.54" arrivalSpeed="16.23" duration="88.00" routeLength="931.91" waitingTime="10.00" waitingCount="1" stopTime="0.00" timeLoss="28.72" rerouteNo="0" devices="tripinfo_veh124" vType="passenger" speedFactor="1.18" vaporized=""/>
    <tripinfo id="veh84" depart="63.00" departLane="-40236203#0_1" departPos="59.24" departSpeed="0.00" departDelay="0.84" arrival="185.00" arrivalLane="222605087#1_1" arrivalPos="24.01" arrivalSpeed="5.07" duration="122.00" routeLength="1078.44" waitingTime="11.00" waitingCount="2" stopTime="0.00" timeLoss="37.63" rerouteNo="0" devices="tripinfo_veh84" vType="passenger" speedFactor="1.03" vaporized=""/>
    <tripinfo id="veh44" depart="33.00" departLane="43546506#1_1" departPos="50.37" departSpeed="0.00" departDelay="0.44" arrival="186.00" arrivalLane="-92198453#3_1" arrivalPos="0.20" arrivalSpeed="13.17" duration="153.00" routeLength="1735.10" waitingTime="0.00" waitingCount="0" stopTime="0.00" timeLoss="21.20" rerouteNo="0" devices="tripinfo_veh44" vType="delivery" speedFactor="0.98" vaporized=""/>
    <tripinfo id="veh66" depart="49.00" departLane="-1107366376_0" departPos="85.76" departSpeed="0.00" departDelay="0.16" arrival="186.00" arrivalLane="43546688#1_1" arrivalPos="71.52" arrivalSpeed="13.26" duration="137.00" routeLength="1370.36" waitingTime="2.00" waitingCount="1" stopTime="0.00" timeLoss="25.42" rerouteNo="0" devices="tripinfo_veh66" vType="passenger" speedFactor="0.98" vaporized=""/>
    <tripinfo id="veh21" depart="16.00" departLane="304695350#1_1" departPos="77.57" departSpeed="0.00" departDelay="0.46" arrival="192.00" arrivalLane="40345956#2_1" arrivalPos="20.97" arrivalSpeed="15.60" duration="176.00" routeLength="2036.49" waitingTime="2.00" waitingCount="1" stopTime="0.00" timeLoss="36.28" rerouteNo="0" devices="tripinfo_veh21" vType="passenger" speedFactor="1.15" vaporized=""/>
    <tripinfo id="veh72" depart="54.00" departLane="-43546460#4_1" departPos="83.69" departSpeed="0.00" departDelay="0.72" arrival="192.00" arrivalLane="859729932_0" arrivalPos="83.63" arrivalSpeed="5.43" duration="138.00" routeLength="1565.04" waitingTime="0.00" waitingCount="0" stopTime="0.00" timeLoss="16.83" rerouteNo="0" devices="tripinfo_veh72" vType="passenger" speedFactor="1.05" vaporized=""/>
    <tripinfo id="veh168" depart="125.00" departLane="-984508805_0" departPos="8.74" departSpeed="0.00" departDelay="0.68" arrival="193.00" arrivalLane="40236220#2_1" arrivalPos="24.83" arrivalSpeed="11.82" duration="68.00" routeLength="621.40" waitingTime="0.00" waitingCount="0" stopTime="0.00" timeLoss="15.54" rerouteNo="0" devices="tripinfo_veh168" vType="emergency" speedFactor="1.00" vaporized=""/>
    <tripinfo id="veh195" depart="145.00" departLane="383582512#1_0" departPos="17.97" departSpeed="0.00" departDelay="0.70" arrival="194.00" arrivalLane="671642291_1" arrivalPos="61.56" arrivalSpeed="14.21" duration="49.00" routeLength="547.89" waitingTime="0.00" waitingCount="0" stopTime="0.00" timeLoss="10.95" rerouteNo="0" devices="tripinfo_veh195" vType="passenger" speedFactor="1.10" vaporized=""/>
    <tripinfo id="veh7" depart="6.00" departLane="-43547017#2_1" departPos="32.02" departSpeed="0.00" departDelay="0.82" arrival="198.00" arrivalLane="92198453#2_1" arrivalPos="113.66" arrivalSpeed="14.64" duration="192.00" routeLength="2202.74" waitingTime="8.00" waitingCount="1" stopTime="0.00" timeLoss="48.20" rerouteNo="0" devices="tripinfo_veh7" vType="passenger" speedFactor="1.12" vaporized=""/>
    <tripinfo id="veh38" depart="29.00" departLane="48778461#1_1" departPos="14.21" departSpeed="0.00" departDelay="0.88" arrival="198.00" arrivalLane="-40314583#1_1" arrivalPos="68.45" arrivalSpeed="15.63" duration="169.00" routeLength="1760.05" waitingTime="20.00" waitingCount="1" stopTime="0.00" timeLoss="54.27" rerouteNo="0" devices="tripinfo_veh38" vType="passenger" speedFactor="1.17" vaporized=""/>
    <tripinfo id="veh156" depart="116.00" departLane="258551283#1_1" departPos="17.48" departSpeed="0.00" departDelay="0.56" arrival="202.00" arrivalLane="43573547#5_1" arrivalPos="56.54" arrivalSpeed="14.02" duration="86.00" routeLength="1017.16" waitingTime="0.00" waitingCount="0" stopTime="0.00" timeLoss="16.83" rerouteNo="0" devices="tripinfo_veh156" vType="passenger" speedFactor="1.10" vaporized=""/>
    <tripinfo id="veh36" depart="27.00" departLane="383582501_0" departPos="24.79" departSpeed="0.00" departDelay="0.36" arrival="205.00" arrivalLane="48778474#0_1" arrivalPos="3.74" arrivalSpeed="5.13" duration="178.00" routeLength="1705.91" waitingTime="10.00" waitingCount="1" stopTime="0.00" timeLoss="29.94" rerouteNo="0" devices="tripinfo_veh36" vType="passenger" speedFactor="0.88" vaporized=""/>
    <tripinfo id="veh13" depart="10.00" departLane="383582493_1" departPos="140.42" departSpeed="0.00" departDelay="0.38" arrival="207.00" arrivalLane="530103972_1" arrivalPos="49.14" arrivalSpeed="1.68" duration="197.00" routeLength="1635.89" waitingTime="35.00" waitingCount="1" stopTime="0.00" timeLoss="59.42" rerouteNo="0" devices="tripinfo_veh13" vType="passenger" speedFactor="1.02" vaporized=""/>
    <tripinfo id="veh176" depart="131.00" departLane="-289113877#0_1" departPos="110.99" departSpeed="0.00" departDelay="0.76" arrival="209.00" arrivalLane="-43546039#0_1" arrivalPos="195.13" arrivalSpeed="13.12" duration="78.00" routeLength="918.95" waitingTime="0.00" waitingCount="0" stopTime="0.00" timeLoss="14.37" rerouteNo="0" devices="tripinfo_veh176" vType="motorcycle" speedFactor="1.10" vaporized=""/>
    <tripinfo id="veh54" depart="40.00" departLane="E12_1" departPos="63.84" departSpeed="0.00" departDelay="0.04" arrival="210.00" arrivalLane="92198453#0_1" arrivalPos="256.38" arrivalSpeed="12.98" duration="170.00" routeLength="1985.10" waitingTime="0.00" waitingCount="0" stopTime="0.00" timeLoss="26.26" rerouteNo="0" devices="tripinfo_veh54" vType="passenger" speedFactor="1.02" vaporized=""/>
    <tripinfo id="veh95" depart="71.00" departLane="-40266620_1" departPos="13.35" departSpeed="0.00" departDelay="0.70" arrival="210.00" arrivalLane="647610982#0_1" arrivalPos="197.95" arrivalSpeed="12.97" duration="139.00" routeLength="1387.82" waitingTime="16.00" waitingCount="1" stopTime="0.00" timeLoss="34.25" rerouteNo="0" devices="tripinfo_veh95" vType="passenger" speedFactor="0.99" vaporized=""/>
    <tripinfo id="veh56" depart="42.00" departLane="-92198453#6_1" departPos="58.93" departSpeed="0.00" departDelay="0.56" arrival="212.00" arrivalLane="48778511_1" arrivalPos="75.86" arrivalSpeed="13.80" duration="170.00" routeLength="2150.46" waitingTime="0.00" waitingCount="0" stopTime="0.00" timeLoss="20.95" rerouteNo="0" devices="tripinfo_veh56" vType="passenger" speedFactor="1.06" vaporized=""/>
    <personinfo id="ped7" depart="35.00" type="DEFAULT_PEDTYPE" speedFactor="1.16" duration="178.00" waitingTime="0.00" timeLoss="18.22" traveltime="178.00">
        <walk depart="35.00" departPos="0.00" arrival="213.00" arrivalPos="55.80" duration="178.00" routeLength="257.89" timeLoss="18.22" maxSpeed="1.61"/>
    </personinfo>
    <tripinfo id="veh0" depart="0.00" departLane="-48736638#2_1" departPos="29.06" departSpeed="0.00" departDelay="0.00" arrival="219.00" arrivalLane="945793490#4_1" arrivalPos="51.67" arrivalSpeed="5.20" duration="219.00" routeLength="1982.58" waitingTime="3.00" waitingCount="1" stopTime="0.00" timeLoss="41.55" rerouteNo="0" devices="tripinfo_veh0" vType="motorcycle" speedFactor="0.98" vaporized=""/>
    <tripinfo id="veh27" depart="20.00" departLane="43547256#2_1" departPos="10.19" departSpeed="0.00" departDelay="0.02" arrival="220.00" arrivalLane="859727041_0" arrivalPos="249.96" arrivalSpeed="5.23" duration="200.00" routeLength="1884.63" waitingTime="0.00" waitingCount="0" stopTime="0.00" timeLoss="23.36" rerouteNo="0" devices="tripinfo_veh27" vType="passenger" speedFactor="0.94" vaporized=""/>
    <tripinfo id="veh3" depart="3.00" departLane="-92198453#1_1" departPos="11.90" departSpeed="0.00" departDelay="0.78" arrival="223.00" arrivalLane="48778443#1_1" arrivalPos="92.66" arrivalSpeed="12.68" duration="220.00" routeLength="2338.31" waitingTime="0.00" waitingCount="0" stopTime="0.00" timeLoss="32.60" rerouteNo="0" devices="tripinfo_veh3" vType="passenger" speedFactor="0.94" vaporized=""/>
    <tripinfo id="veh22" depart="17.00" departLane="383582518#0_0" departPos="9.93" departSpeed="0.00" departDelay="0.72" arrival="226.00" arrivalLane="-48778461#1_1" arrivalPos="23.84" arrivalSpeed="10.86" duration="209.00" routeLength="2448.96" waitingTime="0.00" waitingCount="0" stopTime="0.00" timeLoss="39.40" rerouteNo="0" devices="tripinfo_veh22" vType="passenger" speedFactor="1.12" vaporized=""/>
    <tripinfo id="veh130" depart="97.00" departLane="43544179#4_1" departPos="28.98" departSpeed="0.00" departDelay="0.80" arrival="229.00" arrivalLane="48778500#0_1" arrivalPos="18.03" arrivalSpeed="9.73" duration="132.00" routeLength="1199.62" waitingTime="0.00" waitingCount="0" stopTime="0.00" timeLoss="18.07" rerouteNo="0" devices="tripinfo_veh130" vType="passenger" speedFactor="0.80" vaporized=""/>
    <tripinfo id="veh41" depart="31.00" departLane="383582507_0" departPos="28.69" departSpeed="0.00" departDelay="0.66" arrival="231.00" arrivalLane="48778446#1_1" arrivalPos="15.44" arrivalSpeed="11.57" duration="200.00" routeLength="2161.22" waitingTime="0.00" waitingCount="0" stopTime="0.00" timeLoss="28.28" rerouteNo="0" devices="tripinfo_veh41" vType="motorcycle" speedFactor="1.00" vaporized=""/>
    <tripinfo id="veh182" depart="135.00" departLane="-48778496_1" departPos="55.12" departSpeed="0.00" departDelay="0.32" arrival="231.00" arrivalLane="-40236144#1_1" arrivalPos="53.50" arrivalSpeed="12.62" duration="96.00" routeLength="670.95" waitingTime="20.00" waitingCount="1" stopTime="0.00" timeLoss="37.38" rerouteNo="0" devices="tripinfo_veh182" vType="passenger" speedFactor="0.91" vaporized=""/>
    <personinfo id="ped43" depart="215.00" type="DEFAULT_PEDTYPE" speedFactor="0.86" duration="22.00" waitingTime="0.00" timeLoss="2.55" traveltime="22.00">
        <walk depart="215.00" departPos="0.00" arrival="237.00" arrivalPos="23.11" duration="22.00" routeLength="23.11" timeLoss="2.55" maxSpeed="1.19"/>
    </personinfo>
    <tripinfo id="veh17" depart="13.00" departLane="-647610982#2_1" departPos="11.48" departSpeed="0.00" departDelay="0.42" arrival="243.00" arrivalLane="-43544179#2_1" arrivalPos="111.50" arrivalSpeed="11.87" duration="230.00" routeLength="2258.07" waitingTime="11.00" waitingCount="1" stopTime="0.00" timeLoss="38.46" rerouteNo="0" devices="tripinfo_veh17" vType="passenger" speedFactor="0.87" vaporized=""/>
    <tripinfo id="veh143" depart="106.00" departLane="647226815#1_1" departPos="26.56" departSpeed="0.00" departDelay="0.18" arrival="244.00" arrivalLane="-43544179#3_1" arrivalPos="126.73" arrivalSpeed="5.51" duration="138.00" routeLength="760.75" waitingTime="0.00" waitingCount="0" stopTime="0.00" timeLoss="12.15" rerouteNo="0" devices="tripinfo_veh143" vType="bicycle" speedFactor="1.09" vaporized=""/>
    <tripinfo id="veh117" depart="87.00" departLane="-48778517#1_1" departPos="13.58" departSpeed="0.00" departDelay="0.42" arrival="248.00" arrivalLane="-383582514_1" arrivalPos="205.28" arrivalSpeed="6.69" duration="161.00" routeLength="1552.98" waitingTime="0.00" waitingCount="0" stopTime="0.00" timeLoss="16.31" rerouteNo="0" devices="tripinfo_veh117" vType="passenger" speedFactor="0.89" vaporized=""/>
    <tripinfo id="veh98" depart="73.00" departLane="E40_0" departPos="1.45" departSpeed="0.00" departDelay="0.48" arrival="249.00" arrivalLane="647689085_1" arrivalPos="124.55" arrivalSpeed="13.88" duration="176.00" routeLength="1296.51" waitingTime="0.00" waitingCount="0" stopTime="0.00" timeLoss="27.12" rerouteNo="0" devices="tripinfo_veh98" vType="passenger" speedFactor="1.03" vaporized=""/>
    <tripinfo id="veh213" depart="158.00" departLane="-48736656#2_1" departPos="14.13" departSpeed="0.00" departDelay="0.38" arrival="249.00" arrivalLane="-33913538#9_1" arrivalPos="32.77" arrivalSpeed="13.83" duration="91.00" routeLength="635.79" waitingTime="21.00" waitingCount="1" stopTime="0.00" timeLoss="40.84" rerouteNo="0" devices="tripinfo_veh213" vType="passenger" speedFactor="1.00" vaporized=""/>
    <tripinfo id="veh231" depart="171.00" departLane="-48778525#1_1" departPos="9.18" departSpeed="0.00" departDelay="0.06" arrival="251.00" arrivalLane="43546039#1_1" arrivalPos="97.78" arrivalSpeed="15.97" duration="80.00" routeLength="948.54" waitingTime="2.00" waitingCount="1" stopTime="0.00" timeLoss="18.47" rerouteNo="0" devices="tripinfo_veh231" vType="passenger" speedFactor="1.16" vaporized=""/>
    <tripinfo id="veh45" depart="34.00" departLane="-40330571#0_1" departPos="4.67" departSpeed="0.00" departDelay="0.70" arrival="252.00" arrivalLane="-859738688_0" arrivalPos="223.29" arrivalSpeed="4.80" duration="218.00" routeLength="1878.46" waitingTime="31.00" waitingCount="1" stopTime="0.00" timeLoss="59.78" rerouteNo="0" devices="tripinfo_veh45" vType="passenger" speedFactor="1.02" vaporized=""/>
    <tripinfo id="veh114" depart="85.00" departLane="1136283381_1" departPos="3.53" departSpeed="0.00" departDelay="0.64" arrival="253.00" arrivalLane="-43544179#6_1" arrivalPos="35.50" arrivalSpeed="12.79" duration="168.00" routeLength="1738.97" waitingTime="0.00" waitingCount="0" stopTime="0.00" timeLoss="25.81" rerouteNo="0" devices="tripinfo_veh114" vType="delivery" speedFactor="1.01" vaporized=""/>
    <tripinfo id="veh104" depart="77.00" departLane="250295379_1" departPos="120.98" departSpeed="0.00" departDelay="0.04" arrival="254.00" arrivalLane="-40345956#2_1" arrivalPos="19.04" arrivalSpeed="14.05" duration="177.00" routeLength="1878.03" waitingTime="11.00" waitingCount="1" stopTime="0.00" timeLoss="49.80" rerouteNo="0" devices="tripinfo_veh104" vType="motorcycle" speedFactor="1.10" vaporized=""/>
    <tripinfo id="veh258" depart="191.00" departLane="994066251#1_0" departPos="2.48" departSpeed="0.00" departDelay="0.08" arrival="254.00" arrivalLane="-470210923#2_1" arrivalPos="56.87" arrivalSpeed="14.54" duration="63.00" routeLength="662.40" waitingTime="5.00" waitingCount="1" stopTime="0.00" timeLoss="18.76" rerouteNo="0" devices="tripinfo_veh258" vType="passenger" speedFactor="1.13" vaporized=""/>
    <tripinfo id="veh12" depart="9.00" departLane="48736610#2_1" departPos="58.23" departSpeed="0.00" departDelay="0.12" arrival="255.00" arrivalLane="-48778485#0_1" arrivalPos="25.13" arrivalSpeed="11.86" duration="246.00" routeLength="1995.40" waitingTime="57.00" waitingCount="4" stopTime="0.00" timeLoss="98.60" rerouteNo="0" devices="tripinfo_veh12" vType="emergency" speedFactor="1.00" vaporized=""/>
    <tripinfo id="veh10" depart="8.00" departLane="-945793490#4_1" departPos="26.50" departSpeed="0.00" departDelay="0.60" arrival="256.00" arrivalLane="43544624#1_1" arrivalPos="93.66" arrivalSpeed="13.27" duration="248.00" routeLength="2412.23" waitingTime="16.00" waitingCount="1" stopTime="0.00" timeLoss="54.05" rerouteNo="0" devices="tripinfo_veh10" vType="passenger" speedFactor="1.04" vaporized=""/>
    <tripinfo id="veh99" depart="74.00" departLane="-258551317_1" departPos="41.48" departSpeed="0.00" departDelay="0.74" arrival="256.00" arrivalLane="647698858_0" arrivalPos="106.19" arrivalSpeed="4.86" duration="182.00" routeLength="1205.47" waitingTime="40.00" waitingCount="2" stopTime="0.00" timeLoss="81.42" rerouteNo="0" devices="tripinfo_veh99" vType="passenger" speedFactor="1.02" vaporized=""/>
    <tripinfo id="veh73" depart="55.00" departLane="-1015948619_0" departPos="19.26" departSpeed="0.00" departDelay="0.98" arrival="259.00" arrivalLane="-1205541342_1" arrivalPos="22.37" arrivalSpeed="5.10" duration="204.00" routeLength="2204.59" waitingTime="1.00" waitingCount="1" stopTime="0.00" timeLoss="40.01" rerouteNo="0" devices="tripinfo_veh73" vType="passenger" speedFactor="1.06" vaporized=""/>
    <tripinfo id="veh110" depart="82.00" departLane="-40345930_1" departPos="20.36" departSpeed="0.00" departDelay="0.60" arrival="263.00" arrivalLane="43544184#2_1" arrivalPos="44.28" arrivalSpeed="13.59" duration="181.00" routeLength="2232.35" waitingTime="0.00" waitingCount="0" stopTime="0.00" timeLoss="17.35" rerouteNo="0" devices="tripinfo_veh110" vType="emergency" speedFactor="1.00" vaporized=""/>
    <tripinfo id="veh40" depart="30.00" departLane="-43547256#1_1" departPos="2.22" departSpeed="0.00" departDelay="0.40" arrival="264.00" arrivalLane="48778486_1" arrivalPos="28.07" arrivalSpeed="12.83" duration="234.00" routeLength="2955.39" waitingTime="0.00" waitingCount="0" stopTime="0.00" timeLoss="27.49" rerouteNo="0" devices="tripinfo_veh40" vType="passenger" speedFactor="1.05" vaporized=""/>
    <tripinfo id="veh210" depart="156.00" departLane="289113778#1_1" departPos="302.09" departSpeed="0.00" departDelay="0.60" arrival="264.00" arrivalLane="648082196_1" arrivalPos="93.22" arrivalSpeed="15.10" duration="108.00" routeLength="906.85" waitingTime="22.00" waitingCount="1" stopTime="0.00" timeLoss="46.04" rerouteNo="0" devices="tripinfo_veh210" vType="passenger" speedFactor="1.12" vaporized=""/>
    <tripinfo id="veh102" depart="76.00" departLane="996984134_0" departPos="36.30" departSpeed="0.00" departDelay="0.52" arrival="266.00" arrivalLane="-250295379_1" arrivalPos="126.33" arrivalSpeed="13.67" duration="190.00" routeLength="1311.74" waitingTime="69.00" waitingCount="1" stopTime="0.00" timeLoss="88.88" rerouteNo="0" devices="tripinfo_veh102" vType="passenger" speedFactor="1.00" vaporized=""/>
    <tripinfo id="veh234" depart="174.00" departLane="E6_1" departPos="7.33" departSpeed="0.00" departDelay="0.84" arrival="266.00" arrivalLane="-945793486#1_0" arrivalPos="53.92" arrivalSpeed="5.62" duration="92.00" routeLength="902.71" waitingTime="0.00" waitingCount="0" stopTime="0.00" timeLoss="22.80" rerouteNo="0" devices="tripinfo_veh234" vType="passenger" speedFactor="1.10" vaporized=""/>
    <tripinfo id="veh137" depart="102.00" departLane="-992542691_0" departPos="17.84" departSpeed="0.00" departDelay="0.62" arrival="267.00" arrivalLane="-383582513_0" arrivalPos="62.69" arrivalSpeed="4.33" duration="165.00" routeLength="1083.58" waitingTime="39.00" waitingCount="2" stopTime="0.00" timeLoss="61.92" rerouteNo="0" devices="tripinfo_veh137" vType="passenger" speedFactor="0.87" vaporized=""/>
    <tripinfo id="veh275" depart="204.00" departLane="-859728207_0" departPos="5.84" departSpeed="0.00" departDelay="0.50" arrival="267.00" arrivalLane="994066252#1_0" arrivalPos="52.62" arrivalSpeed="5.02" duration="63.00" routeLength="336.05" waitingTime="0.00" waitingCount="0" stopTime="0.00" timeLoss="11.38" rerouteNo="0" devices="tripinfo_veh275" vType="passenger" speedFactor="0.93" vaporized=""/>