<?xml version="1.0" encoding="UTF-8"?>

<!-- generated on 2025-06-12 12:30:59 by Eclipse SUMO sumo Version 1.22.0
<sumoConfiguration xmlns:xsi="http://www.w3.org/2001/XMLSchema-instance" xsi:noNamespaceSchemaLocation="http://sumo.dlr.de/xsd/sumoConfiguration.xsd">

    <input>
        <net-file value="osm.net.xml"/>
        <route-files value="full.rou.xml, ped.rou.xml, truck.rou.xml"/>
        <additional-files value="osm.poly.xml, vtypes.xml"/>
    </input>

    <output>
        <summary-output value="summary.xml"/>
        <tripinfo-output value="E:\licenta\oras-mediu\2025-06-05-11-45-23\baseline_outputs\tripinfo_baseline_ep5.xml"/>
    </output>

    <processing>
        <ignore-route-errors value="true"/>
        <tls.actuated.jam-threshold value="30"/>
    </processing>

    <routing>
        <device.rerouting.adaptation-steps value="18"/>
        <device.rerouting.adaptation-interval value="10"/>
    </routing>

    <report>
        <verbose value="true"/>
        <duration-log.statistics value="true"/>
        <no-step-log value="true"/>
    </report>

    <traci_server>
        <remote-port value="64464"/>
    </traci_server>

    <gui_only>
        <gui-settings-file value="osm.view.xml"/>
    </gui_only>

</sumoConfiguration>
-->

<tripinfos xmlns:xsi="http://www.w3.org/2001/XMLSchema-instance" xsi:noNamespaceSchemaLocation="http://sumo.dlr.de/xsd/tripinfo_file.xsd">
    <personinfo id="ped2" depart="10.00" type="DEFAULT_PEDTYPE" speedFactor="0.82" duration="55.00" waitingTime="0.00" timeLoss="6.64" traveltime="55.00">
        <walk depart="10.00" departPos="0.00" arrival="65.00" arrivalPos="54.75" duration="55.00" routeLength="54.75" timeLoss="6.64" maxSpeed="1.13"/>
    </personinfo>
    <personinfo id="ped3" depart="15.00" type="DEFAULT_PEDTYPE" speedFactor="0.97" duration="65.00" waitingTime="0.00" timeLoss="7.48" traveltime="65.00">
        <walk depart="15.00" departPos="0.00" arrival="80.00" arrivalPos="2.54" duration="65.00" routeLength="77.57" timeLoss="7.48" maxSpeed="1.35"/>
    </personinfo>
    <tripinfo id="veh72" depart="49.00" departLane="1250915720#1_1" departPos="3.45" departSpeed="0.00" departDelay="0.76" arrival="91.00" arrivalLane="222605084#9_1" arrivalPos="2.21" arrivalSpeed="5.27" duration="42.00" routeLength="185.51" waitingTime="0.00" waitingCount="0" stopTime="0.00" timeLoss="8.56" rerouteNo="0" devices="tripinfo_veh72" vType="passenger" speedFactor="1.01" vaporized=""/>
    <tripinfo id="veh58" depart="39.00" departLane="-43544138#4_1" departPos="26.15" departSpeed="0.00" departDelay="0.14" arrival="106.00" arrivalLane="-43544624#0_1" arrivalPos="295.18" arrivalSpeed="8.67" duration="67.00" routeLength="677.70" waitingTime="0.00" waitingCount="0" stopTime="0.00" timeLoss="13.51" rerouteNo="0" devices="tripinfo_veh58" vType="passenger" speedFactor="0.95" vaporized=""/>
    <tripinfo id="veh33" depart="23.00" departLane="-48778498#2_1" departPos="10.26" departSpeed="0.00" departDelay="0.89" arrival="107.00" arrivalLane="-40330571#1_1" arrivalPos="2.27" arrivalSpeed="14.00" duration="84.00" routeLength="646.42" waitingTime="18.00" waitingCount="1" stopTime="0.00" timeLoss="35.60" rerouteNo="0" devices="tripinfo_veh33" vType="passenger" speedFactor="1.03" vaporized=""/>
    <tripinfo id="veh136" depart="92.00" departLane="-E34_2" departPos="42.64" departSpeed="0.00" departDelay="0.88" arrival="107.00" arrivalLane="-258551281_1" arrivalPos="67.94" arrivalSpeed="12.19" duration="15.00" routeLength="114.61" waitingTime="0.00" waitingCount="0" stopTime="0.00" timeLoss="4.82" rerouteNo="0" devices="tripinfo_veh136" vType="passenger" speedFactor="0.91" vaporized=""/>
    <tripinfo id="veh20" depart="14.00" departLane="-1250915721#1_1" departPos="1.21" departSpeed="0.00" departDelay="0.60" arrival="108.00" arrivalLane="859734513_0" arrivalPos="94.32" arrivalSpeed="5.28" duration="94.00" routeLength="845.84" waitingTime="0.00" waitingCount="0" stopTime="0.00" timeLoss="12.80" rerouteNo="0" devices="tripinfo_veh20" vType="passenger" speedFactor="1.13" vaporized=""/>
    <tripinfo id="veh23" depart="16.00" departLane="43573547#7_1" departPos="41.35" departSpeed="0.00" departDelay="0.59" arrival="119.00" arrivalLane="-383582513_0" arrivalPos="62.69" arrivalSpeed="5.25" duration="103.00" routeLength="1119.41" waitingTime="0.00" waitingCount="0" stopTime="0.00" timeLoss="20.55" rerouteNo="0" devices="tripinfo_veh23" vType="passenger" speedFactor="1.12" vaporized=""/>
    <tripinfo id="veh60" depart="41.00" departLane="48736656#3_1" departPos="1.41" departSpeed="0.00" departDelay="0.80" arrival="121.00" arrivalLane="48736620#5_1" arrivalPos="11.94" arrivalSpeed="9.51" duration="80.00" routeLength="489.15" waitingTime="29.00" waitingCount="1" stopTime="0.00" timeLoss="44.15" rerouteNo="0" devices="tripinfo_veh60" vType="passenger" speedFactor="1.02" vaporized=""/>
    <tripinfo id="veh18" depart="13.00" departLane="-43545645#2_1" departPos="303.61" departSpeed="0.00" departDelay="0.94" arrival="131.00" arrivalLane="258551283#1_1" arrivalPos="55.98" arrivalSpeed="12.06" duration="118.00" routeLength="1082.07" waitingTime="1.00" waitingCount="1" stopTime="0.00" timeLoss="25.80" rerouteNo="0" devices="tripinfo_veh18" vType="passenger" speedFactor="0.87" vaporized=""/>
    <tripinfo id="veh91" depart="61.00" departLane="43546343#2_1" departPos="43.06" departSpeed="0.00" departDelay="0.03" arrival="132.00" arrivalLane="-1054663939_1" arrivalPos="21.68" arrivalSpeed="7.89" duration="71.00" routeLength="709.10" waitingTime="0.00" waitingCount="0" stopTime="0.00" timeLoss="16.54" rerouteNo="0" devices="tripinfo_veh91" vType="delivery" speedFactor="1.03" vaporized=""/>
    <tripinfo id="veh104" depart="70.00" departLane="40345930_1" departPos="17.33" departSpeed="0.00" departDelay="0.32" arrival="135.00" arrivalLane="-383582513_0" arrivalPos="62.69" arrivalSpeed="4.45" duration="65.00" routeLength="572.03" waitingTime="0.00" waitingCount="0" stopTime="0.00" timeLoss="13.39" rerouteNo="0" devices="tripinfo_veh104" vType="motorcycle" speedFactor="0.98" vaporized=""/>
    <tripinfo id="veh34" depart="23.00" departLane="470210923#1_1" departPos="139.60" departSpeed="0.00" departDelay="0.22" arrival="137.00" arrivalLane="-43546460#2_1" arrivalPos="42.36" arrivalSpeed="14.30" duration="114.00" routeLength="1510.80" waitingTime="0.00" waitingCount="0" stopTime="0.00" timeLoss="10.90" rerouteNo="0" devices="tripinfo_veh34" vType="passenger" speedFactor="1.07" vaporized=""/>
    <tripinfo id="veh11" depart="8.00" departLane="E42_2" departPos="117.83" departSpeed="0.00" departDelay="0.63" arrival="139.00" arrivalLane="48736666#2_1" arrivalPos="56.15" arrivalSpeed="14.42" duration="131.00" routeLength="1317.97" waitingTime="5.00" waitingCount="1" stopTime="0.00" timeLoss="34.04" rerouteNo="0" devices="tripinfo_veh11" vType="passenger" speedFactor="1.04" vaporized=""/>
    <tripinfo id="veh22" depart="15.00" departLane="-43545645#1_1" departPos="58.90" departSpeed="0.00" departDelay="0.26" arrival="146.00" arrivalLane="-48778525#0_1" arrivalPos="49.94" arrivalSpeed="14.86" duration="131.00" routeLength="1571.51" waitingTime="0.00" waitingCount="0" stopTime="0.00" timeLoss="27.50" rerouteNo="0" devices="tripinfo_veh22" vType="passenger" speedFactor="1.15" vaporized=""/>
    <tripinfo id="veh6" depart="5.00" departLane="43545645#2_1" departPos="1.90" departSpeed="0.00" departDelay="0.98" arrival="147.00" arrivalLane="258551279_0" arrivalPos="179.06" arrivalSpeed="5.30" duration="142.00" routeLength="1354.54" waitingTime="0.00" waitingCount="0" stopTime="0.00" timeLoss="27.51" rerouteNo="0" devices="tripinfo_veh6" vType="delivery" speedFactor="1.05" vaporized=""/>
    <tripinfo id="veh135" depart="91.00" departLane="-48736655_1" departPos="10.09" departSpeed="0.00" departDelay="0.55" arrival="149.00" arrivalLane="-264868333_1" arrivalPos="76.76" arrivalSpeed="12.50" duration="58.00" routeLength="506.87" waitingTime="0.00" waitingCount="0" stopTime="0.00" timeLoss="18.17" rerouteNo="0" devices="tripinfo_veh135" vType="motorcycle" speedFactor="1.01" vaporized=""/>
    <personinfo id="ped0" depart="0.00" type="DEFAULT_PEDTYPE" speedFactor="1.03" duration="150.00" waitingTime="0.00" timeLoss="16.11" traveltime="150.00">
        <walk depart="0.00" departPos="0.00" arrival="150.00" arrivalPos="8.09" duration="150.00" routeLength="191.60" timeLoss="16.11" maxSpeed="1.43"/>
    </personinfo>
    <tripinfo id="veh63" depart="43.00" departLane="48797765#0_1" departPos="15.85" departSpeed="0.00" departDelay="0.79" arrival="153.00" arrivalLane="-859732801#0_1" arrivalPos="34.67" arrivalSpeed="13.30" duration="110.00" routeLength="1113.85" waitingTime="0.00" waitingCount="0" stopTime="0.00" timeLoss="26.30" rerouteNo="0" devices="tripinfo_veh63" vType="passenger" speedFactor="1.12" vaporized=""/>
    <tripinfo id="veh76" depart="51.00" departLane="48778505#2_1" departPos="13.27" departSpeed="0.00" departDelay="0.08" arrival="153.00" arrivalLane="-48778517#0_1" arrivalPos="43.62" arrivalSpeed="8.76" duration="102.00" routeLength="1111.08" waitingTime="0.00" waitingCount="0" stopTime="0.00" timeLoss="18.28" rerouteNo="0" devices="tripinfo_veh76" vType="passenger" speedFactor="1.05" vaporized=""/>
    <tripinfo id="veh96" depart="65.00" departLane="48736643_1" departPos="39.37" departSpeed="0.00" departDelay="0.68" arrival="156.00" arrivalLane="-492965073#2_1" arrivalPos="175.38" arrivalSpeed="14.01" duration="91.00" routeLength="653.06" waitingTime="24.00" waitingCount="1" stopTime="0.00" timeLoss="41.30" rerouteNo="0" devices="tripinfo_veh96" vType="delivery" speedFactor="1.01" vaporized=""/>
    <tripinfo id="veh19" depart="13.00" departLane="353939585#2_2" departPos="7.85" departSpeed="0.00" departDelay="0.27" arrival="160.00" arrivalLane="43544202#2_1" arrivalPos="171.08" arrivalSpeed="14.07" duration="147.00" routeLength="1626.16" waitingTime="6.00" waitingCount="1" stopTime="0.00" timeLoss="30.46" rerouteNo="0" devices="tripinfo_veh19" vType="passenger" speedFactor="1.03" vaporized=""/>
    <tripinfo id="veh48" depart="33.00" departLane="-48778508#1_1" departPos="77.17" departSpeed="0.00" departDelay="0.84" arrival="161.00" arrivalLane="-1136117610_0" arrivalPos="80.17" arrivalSpeed="2.05" duration="128.00" routeLength="730.92" waitingTime="0.00" waitingCount="0" stopTime="0.00" timeLoss="38.16" rerouteNo="0" devices="tripinfo_veh48" vType="motorcycle" speedFactor="0.90" vaporized=""/>
    <tripinfo id="veh116" depart="78.00" departLane="40314583#6_1" departPos="17.99" departSpeed="0.00" departDelay="0.28" arrival="164.00" arrivalLane="48736623_1" arrivalPos="129.63" arrivalSpeed="13.81" duration="86.00" routeLength="621.91" waitingTime="11.00" waitingCount="1" stopTime="0.00" timeLoss="39.44" rerouteNo="0" devices="tripinfo_veh116" vType="passenger" speedFactor="1.04" vaporized=""/>
    <personinfo id="ped4" depart="20.00" type="DEFAULT_PEDTYPE" speedFactor="1.03" duration="147.00" waitingTime="0.00" timeLoss="15.81" traveltime="147.00">
        <walk depart="20.00" departPos="0.00" arrival="167.00" arrivalPos="28.59" duration="147.00" routeLength="188.33" timeLoss="15.81" maxSpeed="1.44"/>
    </personinfo>
    <tripinfo id="veh157" depart="106.00" departLane="40305706#1_1" departPos="21.62" departSpeed="0.00" departDelay="0.81" arrival="170.00" arrivalLane="40305706#0_1" arrivalPos="32.26" arrivalSpeed="14.33" duration="64.00" routeLength="459.28" waitingTime="12.00" waitingCount="1" stopTime="0.00" timeLoss="29.21" rerouteNo="0" devices="tripinfo_veh157" vType="motorcycle" speedFactor="1.08" vaporized=""/>
    <tripinfo id="veh85" depart="57.00" departLane="-43546039#1_1" departPos="96.26" departSpeed="0.00" departDelay="0.05" arrival="171.00" arrivalLane="-647262856_1" arrivalPos="411.78" arrivalSpeed="13.55" duration="114.00" routeLength="1246.35" waitingTime="0.00" waitingCount="0" stopTime="0.00" timeLoss="24.78" rerouteNo="0" devices="tripinfo_veh85" vType="passenger" speedFactor="1.06" vaporized=""/>
    <tripinfo id="veh52" depart="35.00" departLane="-E40_0" departPos="2.36" departSpeed="0.00" departDelay="0.16" arrival="174.00" arrivalLane="48778508#0_1" arrivalPos="11.33" arrivalSpeed="8.61" duration="139.00" routeLength="1579.42" waitingTime="5.00" waitingCount="1" stopTime="0.00" timeLoss="22.47" rerouteNo="0" devices="tripinfo_veh52" vType="passenger" speedFactor="1.00" vaporized=""/>
    <tripinfo id="veh35" depart="24.00" departLane="43546092_1" departPos="102.01" departSpeed="0.00" departDelay="0.55" arrival="177.00" arrivalLane="-223883703_0" arrivalPos="83.93" arrivalSpeed="4.62" duration="153.00" routeLength="1354.74" waitingTime="23.00" waitingCount="1" stopTime="0.00" timeLoss="46.63" rerouteNo="0" devices="tripinfo_veh35" vType="passenger" speedFactor="1.04" vaporized=""/>
    <tripinfo id="veh187" depart="126.00" departLane="48778481#8_2" departPos="1.93" departSpeed="0.00" departDelay="0.71" arrival="178.00" arrivalLane="-E24_2" arrivalPos="106.13" arrivalSpeed="15.60" duration="52.00" routeLength="661.19" waitingTime="0.00" waitingCount="0" stopTime="0.00" timeLoss="9.34" rerouteNo="0" devices="tripinfo_veh187" vType="passenger" speedFactor="1.17" vaporized=""/>
    <personinfo id="ped20" depart="100.00" type="DEFAULT_PEDTYPE" speedFactor="1.02" duration="84.00" waitingTime="0.00" timeLoss="46.18" traveltime="84.00">
        <walk depart="100.00" departPos="0.00" arrival="184.00" arrivalPos="41.72" duration="84.00" routeLength="53.36" timeLoss="46.18" maxSpeed="1.41"/>
    </personinfo>
    <tripinfo id="veh13" depart="9.00" departLane="43573547#0_1" departPos="122.70" departSpeed="0.00" departDelay="0.29" arrival="186.00" arrivalLane="-222605089#1_1" arrivalPos="62.73" arrivalSpeed="13.22" duration="177.00" routeLength="2026.55" waitingTime="0.00" waitingCount="0" stopTime="0.00" timeLoss="26.05" rerouteNo="0" devices="tripinfo_veh13" vType="emergency" speedFactor="1.00" vaporized=""/>
    <tripinfo id="veh56" depart="38.00" departLane="-48778508#4_1" departPos="10.64" departSpeed="0.00" departDelay="0.48" arrival="186.00" arrivalLane="859732803#1_0" arrivalPos="26.12" arrivalSpeed="4.85" duration="148.00" routeLength="1506.69" waitingTime="0.00" waitingCount="0" stopTime="0.00" timeLoss="23.95" rerouteNo="0" devices="tripinfo_veh56" vType="passenger" speedFactor="0.96" vaporized=""/>
    <tripinfo id="veh12" depart="9.00" departLane="859728206_0" departPos="18.79" departSpeed="0.00" departDelay="0.96" arrival="188.00" arrivalLane="848060815_1" arrivalPos="138.45" arrivalSpeed="12.19" duration="179.00" routeLength="1768.95" waitingTime="5.00" waitingCount="1" stopTime="0.00" timeLoss="29.74" rerouteNo="0" devices="tripinfo_veh12" vType="delivery" speedFactor="0.97" vaporized=""/>
    <tripinfo id="veh1" depart="1.00" departLane="647347140#2_1" departPos="1.11" departSpeed="0.00" departDelay="0.33" arrival="189.00" arrivalLane="48778457#0_1" arrivalPos="3.64" arrivalSpeed="8.21" duration="188.00" routeLength="2042.46" waitingTime="16.00" waitingCount="2" stopTime="0.00" timeLoss="49.57" rerouteNo="0" devices="tripinfo_veh1" vType="passenger" speedFactor="1.08" vaporized=""/>
    <tripinfo id="veh17" depart="12.00" departLane="-859728622_0" departPos="105.83" departSpeed="0.00" departDelay="0.61" arrival="189.00" arrivalLane="-250295379_1" arrivalPos="126.33" arrivalSpeed="13.96" duration="177.00" routeLength="941.26" waitingTime="60.00" waitingCount="1" stopTime="0.00" timeLoss="84.58" rerouteNo="0" devices="tripinfo_veh17" vType="passenger" speedFactor="1.01" vaporized=""/>
    <tripinfo id="veh126" depart="85.00" departLane="40304754#5_1" departPos="31.23" departSpeed="0.00" departDelay="0.58" arrival="191.00" arrivalLane="-48778505#1_1" arrivalPos="53.40" arrivalSpeed="16.78" duration="106.00" routeLength="1442.81" waitingTime="0.00" waitingCount="0" stopTime="0.00" timeLoss="17.45" rerouteNo="0" devices="tripinfo_veh126" vType="passenger" speedFactor="1.21" vaporized=""/>
    <tripinfo id="veh167" depart="112.00" departLane="-43546343#2_1" departPos="11.96" departSpeed="0.00" departDelay="0.11" arrival="195.00" arrivalLane="-1135856746#0_1" arrivalPos="10.90" arrivalSpeed="14.70" duration="83.00" routeLength="1085.21" waitingTime="0.00" waitingCount="0" stopTime="0.00" timeLoss="9.17" rerouteNo="0" devices="tripinfo_veh167" vType="passenger" speedFactor="1.07" vaporized=""/>
    <tripinfo id="veh50" depart="34.00" departLane="-43544001#0_1" departPos="13.29" departSpeed="0.00" departDelay="0.50" arrival="202.00" arrivalLane="-43546109_1" arrivalPos="180.58" arrivalSpeed="13.80" duration="168.00" routeLength="1986.37" waitingTime="0.00" waitingCount="0" stopTime="0.00" timeLoss="25.48" rerouteNo="0" devices="tripinfo_veh50" vType="passenger" speedFactor="1.02" vaporized=""/>
    <tripinfo id="veh203" depart="137.00" departLane="-48736645_1" departPos="81.35" departSpeed="0.00" departDelay="0.99" arrival="204.00" arrivalLane="470210923#2_1" arrivalPos="56.87" arrivalSpeed="15.70" duration="67.00" routeLength="792.22" waitingTime="0.00" waitingCount="0" stopTime="0.00" timeLoss="14.04" rerouteNo="0" devices="tripinfo_veh203" vType="motorcycle" speedFactor="1.14" vaporized=""/>
    <tripinfo id="veh115" depart="78.00" departLane="-1136289987_1" departPos="28.02" departSpeed="0.00" departDelay="0.95" arrival="209.00" arrivalLane="354259933#3_1" arrivalPos="57.36" arrivalSpeed="10.50" duration="131.00" routeLength="1146.63" waitingTime="0.00" waitingCount="0" stopTime="0.00" timeLoss="24.60" rerouteNo="0" devices="tripinfo_veh115" vType="motorcycle" speedFactor="0.84" vaporized=""/>
    <personinfo id="ped25" depart="125.00" type="DEFAULT_PEDTYPE" speedFactor="0.93" duration="88.00" waitingTime="0.00" timeLoss="9.28" traveltime="88.00">
        <walk depart="125.00" departPos="0.00" arrival="213.00" arrivalPos="25.68" duration="88.00" routeLength="101.72" timeLoss="9.28" maxSpeed="1.29"/>
    </personinfo>
    <tripinfo id="veh14" depart="10.00" departLane="353939570#9_2" departPos="39.31" departSpeed="0.00" departDelay="0.62" arrival="213.00" arrivalLane="-43547579#3_1" arrivalPos="119.55" arrivalSpeed="13.00" duration="203.00" routeLength="2266.52" waitingTime="9.00" waitingCount="1" stopTime="0.00" timeLoss="39.32" rerouteNo="0" devices="tripinfo_veh14" vType="passenger" speedFactor="1.02" vaporized=""/>
    <tripinfo id="veh274" depart="184.00" departLane="647226815#1_1" departPos="38.32" departSpeed="0.00" departDelay="0.42" arrival="214.00" arrivalLane="-67736383_1" arrivalPos="44.80" arrivalSpeed="14.06" duration="30.00" routeLength="299.38" waitingTime="0.00" waitingCount="0" stopTime="0.00" timeLoss="7.48" rerouteNo="0" devices="tripinfo_veh274" vType="passenger" speedFactor="1.09" vaporized=""/>
    <tripinfo id="veh77" depart="52.00" departLane="-1250915724#2_1" departPos="41.67" departSpeed="0.00" departDelay="0.41" arrival="216.00" arrivalLane="-40306162#0_1" arrivalPos="91.74" arrivalSpeed="13.73" duration="164.00" routeLength="1437.18" waitingTime="8.00" waitingCount="2" stopTime="0.00" timeLoss="43.26" rerouteNo="0" devices="tripinfo_veh77" vType="passenger" speedFactor="1.06" vaporized=""/>
    <tripinfo id="veh184" depart="124.00" departLane="40236232#0_1" departPos="15.71" departSpeed="0.00" departDelay="0.72" arrival="217.00" arrivalLane="-945793486#0_0" arrivalPos="6.00" arrivalSpeed="5.41" duration="93.00" routeLength="794.86" waitingTime="0.00" waitingCount="0" stopTime="0.00" timeLoss="21.58" rerouteNo="0" devices="tripinfo_veh184" vType="passenger" speedFactor="0.98" vaporized=""/>
    <tripinfo id="veh94" depart="63.00" departLane="383582854#2_0" departPos="25.33" departSpeed="0.00" departDelay="0.02" arrival="219.00" arrivalLane="-48797765#0_1" arrivalPos="17.81" arrivalSpeed="11.50" duration="156.00" routeLength="1714.33" waitingTime="9.00" waitingCount="3" stopTime="0.00" timeLoss="51.13" rerouteNo="0" devices="tripinfo_veh94" vType="passenger" speedFactor="1.25" vaporized=""/>
    <tripinfo id="veh27" depart="19.00" departLane="-40269009#1_1" departPos="9.17" departSpeed="0.00" departDelay="0.91" arrival="220.00" arrivalLane="-40330583#0_0" arrivalPos="91.11" arrivalSpeed="24.24" duration="201.00" routeLength="2175.06" waitingTime="21.00" waitingCount="1" stopTime="0.00" timeLoss="53.20" rerouteNo="0" devices="tripinfo_veh27" vType="motorcycle" speedFactor="1.02" vaporized=""/>
    <tripinfo id="veh68" depart="46.00" departLane="1205541344_0" departPos="74.62" departSpeed="0.00" departDelay="0.44" arrival="222.00" arrivalLane="984508805_0" arrivalPos="34.81" arrivalSpeed="4.95" duration="176.00" routeLength="1897.50" waitingTime="5.00" waitingCount="1" stopTime="0.00" timeLoss="32.12" rerouteNo="0" devices="tripinfo_veh68" vType="passenger" speedFactor="1.02" vaporized=""/>
    <tripinfo id="veh176" depart="118.00" departLane="1136284448_1" departPos="5.08" departSpeed="0.00" departDelay="0.08" arrival="223.00" arrivalLane="43544138#1_1" arrivalPos="28.80" arrivalSpeed="10.82" duration="105.00" routeLength="967.54" waitingTime="0.00" waitingCount="0" stopTime="0.00" timeLoss="14.57" rerouteNo="0" devices="tripinfo_veh176" vType="passenger" speedFactor="0.83" vaporized=""/>
    <tripinfo id="veh209" depart="141.00" departLane="-43544179#5_1" departPos="20.60" departSpeed="0.00" departDelay="0.97" arrival="223.00" arrivalLane="996489799#0_0" arrivalPos="0.20" arrivalSpeed="3.62" duration="82.00" routeLength="749.28" waitingTime="3.00" waitingCount="1" stopTime="0.00" timeLoss="15.37" rerouteNo="0" devices="tripinfo_veh209" vType="passenger" speedFactor="0.85" vaporized=""/>
    <tripinfo id="veh130" depart="88.00" departLane="1205541342_1" departPos="4.57" departSpeed="0.00" departDelay="0.90" arrival="225.00" arrivalLane="40265777#1_1" arrivalPos="65.39" arrivalSpeed="13.35" duration="137.00" routeLength="1570.87" waitingTime="0.00" waitingCount="0" stopTime="0.00" timeLoss="20.00" rerouteNo="0" devices="tripinfo_veh130" vType="motorcycle" speedFactor="1.04" vaporized=""/>
    <tripinfo id="veh103" depart="70.00" departLane="-40295499#1_1" departPos="117.63" departSpeed="0.00" departDelay="0.99" arrival="226.00" arrivalLane="-383582501_0" arrivalPos="63.46" arrivalSpeed="4.24" duration="156.00" routeLength="1725.68" waitingTime="0.00" waitingCount="0" stopTime="0.00" timeLoss="20.93" rerouteNo="0" devices="tripinfo_veh103" vType="passenger" speedFactor="0.99" vaporized=""/>
    <tripinfo id="veh230" depart="155.00" departLane="-43544184#2_1" departPos="34.05" departSpeed="0.00" departDelay="0.90" arrival="226.00" arrivalLane="143207979#4_1" arrivalPos="45.53" arrivalSpeed="15.67" duration="71.00" routeLength="852.50" waitingTime="0.00" waitingCount="0" stopTime="0.00" timeLoss="13.60" rerouteNo="0" devices="tripinfo_veh230" vType="delivery" speedFactor="1.13" vaporized=""/>
    <personinfo id="ped15" depart="75.00" type="DEFAULT_PEDTYPE" speedFactor="0.99" duration="154.00" waitingTime="0.00" timeLoss="23.44" traveltime="154.00">
        <walk depart="75.00" departPos="0.00" arrival="229.00" arrivalPos="13.40" duration="154.00" routeLength="180.14" timeLoss="23.44" maxSpeed="1.38"/>
    </personinfo>
    <tripinfo id="veh65" depart="44.00" departLane="354252043_1" departPos="54.65" departSpeed="0.00" departDelay="0.45" arrival="234.00" arrivalLane="48778508#0_1" arrivalPos="11.33" arrivalSpeed="9.64" duration="190.00" routeLength="1845.55" waitingTime="2.00" waitingCount="1" stopTime="0.00" timeLoss="36.70" rerouteNo="0" devices="tripinfo_veh65" vType="passenger" speedFactor="0.92" vaporized=""/>
    <tripinfo id="veh81" depart="55.00" departLane="-43546688#2_1" departPos="25.58" departSpeed="0.00" departDelay="0.73" arrival="235.00" arrivalLane="-383582496_0" arrivalPos="167.36" arrivalSpeed="2.60" duration="180.00" routeLength="1525.72" waitingTime="0.00" waitingCount="0" stopTime="0.00" timeLoss="36.92" rerouteNo="0" devices="tripinfo_veh81" vType="passenger" speedFactor="1.14" vaporized=""/>
    <personinfo id="ped13" depart="65.00" type="DEFAULT_PEDTYPE" speedFactor="1.20" duration="173.00" waitingTime="0.00" timeLoss="22.27" traveltime="173.00">
        <walk depart="65.00" departPos="0.00" arrival="238.00" arrivalPos="8.11" duration="173.00" routeLength="251.61" timeLoss="22.27" maxSpeed="1.67"/>
    </personinfo>
    <tripinfo id="veh223" depart="150.00" departLane="-48778503#1_1" departPos="14.83" departSpeed="0.00" departDelay="0.59" arrival="239.00" arrivalLane="33909936#2_1" arrivalPos="59.66" arrivalSpeed="13.49" duration="89.00" routeLength="980.66" waitingTime="0.00" waitingCount="0" stopTime="0.00" timeLoss="15.09" rerouteNo="0" devices="tripinfo_veh223" vType="passenger" speedFactor="1.00" vaporized=""/>
    <tripinfo id="veh242" depart="163.00" departLane="40299271_1" departPos="7.61" departSpeed="0.00" departDelay="0.86" arrival="239.00" arrivalLane="492965073#3_1" arrivalPos="202.03" arrivalSpeed="13.20" duration="76.00" routeLength="762.29" waitingTime="4.00" waitingCount="1" stopTime="0.00" timeLoss="18.32" rerouteNo="0" devices="tripinfo_veh242" vType="passenger" speedFactor="0.98" vaporized=""/>
    <tripinfo id="veh83" depart="56.00" departLane="-48778512_1" departPos="41.97" departSpeed="0.00" departDelay="0.39" arrival="241.00" arrivalLane="222605084#0_1" arrivalPos="0.21" arrivalSpeed="5.39" duration="185.00" routeLength="1734.61" waitingTime="18.00" waitingCount="1" stopTime="0.00" timeLoss="43.10" rerouteNo="0" devices="tripinfo_veh83" vType="emergency" speedFactor="1.00" vaporized=""/>
    <tripinfo id="veh24" depart="17.00" departLane="-48736616#0_1" departPos="2.77" departSpeed="0.00" departDelay="0.92" arrival="245.00" arrivalLane="222609002#0_1" arrivalPos="115.28" arrivalSpeed="12.71" duration="228.00" routeLength="1983.71" waitingTime="42.00" waitingCount="3" stopTime="0.00" timeLoss="80.00" rerouteNo="0" devices="tripinfo_veh24" vType="passenger" speedFactor="0.99" vaporized=""/>
    <tripinfo id="veh66" depart="45.00" departLane="43544197#6_1" departPos="19.12" departSpeed="0.00" departDelay="0.78" arrival="245.00" arrivalLane="1136283379#1_1" arrivalPos="30.99" arrivalSpeed="8.10" duration="200.00" routeLength="1612.76" waitingTime="61.00" waitingCount="1" stopTime="0.00" timeLoss="86.87" rerouteNo="0" devices="tripinfo_veh66" vType="passenger" speedFactor="1.09" vaporized=""/>
    <tripinfo id="veh55" depart="37.00" departLane="40236220#0_1" departPos="1.20" departSpeed="0.00" departDelay="0.15" arrival="248.00" arrivalLane="994066251#0_0" arrivalPos="186.80" arrivalSpeed="4.83" duration="211.00" routeLength="1557.70" waitingTime="47.00" waitingCount="1" stopTime="0.00" timeLoss="71.66" rerouteNo="0" devices="tripinfo_veh55" vType="delivery" speedFactor="0.99" vaporized=""/>
    <tripinfo id="veh8" depart="6.00" departLane="43546053#1_1" departPos="54.38" departSpeed="0.00" departDelay="0.64" arrival="251.00" arrivalLane="671642327_0" arrivalPos="200.39" arrivalSpeed="5.57" duration="245.00" routeLength="2312.01" waitingTime="0.00" waitingCount="0" stopTime="0.00" timeLoss="67.78" rerouteNo="0" devices="tripinfo_veh8" vType="passenger" speedFactor="1.12" vaporized=""/>
    <tripinfo id="veh42" depart="29.00" departLane="223883703_0" departPos="49.74" departSpeed="0.00" departDelay="0.86" arrival="253.00" arrivalLane="48778478#2_1" arrivalPos="30.02" arrivalSpeed="14.11" duration="224.00" routeLength="1906.19" waitingTime="49.00" waitingCount="1" stopTime="0.00" timeLoss="84.94" rerouteNo="0" devices="tripinfo_veh42" vType="passenger" speedFactor="1.06" vaporized=""/>
    <tripinfo id="veh156" depart="105.00" departLane="530103975#1_1" departPos="8.74" departSpeed="0.00" departDelay="0.48" arrival="253.00" arrivalLane="48736666#2_1" arrivalPos="56.15" arrivalSpeed="12.28" duration="148.00" routeLength="1329.19" waitingTime="25.00" waitingCount="1" stopTime="0.00" timeLoss="47.31" rerouteNo="0" devices="tripinfo_veh156" vType="motorcycle" speedFactor="0.98" vaporized=""/>
    <tripinfo id="veh9" depart="7.00" departLane="383582498_0" departPos="158.92" departSpeed="0.00" departDelay="0.97" arrival="255.00" arrivalLane="-92198453#0_1" arrivalPos="257.77" arrivalSpeed="11.47" duration="248.00" routeLength="2302.83" waitingTime="5.00" waitingCount="1" stopTime="0.00" timeLoss="40.55" rerouteNo="0" devices="tripinfo_veh9" vType="passenger" speedFactor="0.90" vaporized=""/>
    <tripinfo id="veh67" depart="45.00" departLane="143207982#8_1" departPos="15.40" departSpeed="0.00" departDelay="0.11" arrival="255.00" arrivalLane="1054663943_1" arrivalPos="27.53" arrivalSpeed="7.00" duration="210.00" routeLength="1575.12" waitingTime="39.00" waitingCount="3" stopTime="0.00" timeLoss="77.27" rerouteNo="0" devices="tripinfo_veh67" vType="passenger" speedFactor="0.90" vaporized=""/>
    <tripinfo id="veh90" depart="61.00" departLane="48778500#2_1" departPos="6.71" departSpeed="0.00" departDelay="0.70" arrival="258.00" arrivalLane="470210923#1_1" arrivalPos="159.45" arrivalSpeed="13.08" duration="197.00" routeLength="2071.94" waitingTime="13.00" waitingCount="1" stopTime="0.00" timeLoss="42.28" rerouteNo="0" devices="tripinfo_veh90" vType="passenger" speedFactor="0.98" vaporized=""/>
    <tripinfo id="veh195" depart="131.00" departLane="43544001#8_1" departPos="3.59" departSpeed="0.00" departDelay="0.35" arrival="259.00" arrivalLane="48778514#2_1" arrivalPos="129.42" arrivalSpeed="12.60" duration="128.00" routeLength="1355.77" waitingTime="0.00" waitingCount="0" stopTime="0.00" timeLoss="18.15" rerouteNo="0" devices="tripinfo_veh195" vType="passenger" speedFactor="0.92" vaporized=""/>
    <personinfo id="ped11" depart="55.00" type="DEFAULT_PEDTYPE" speedFactor="1.19" duration="205.00" waitingTime="0.00" timeLoss="19.63" traveltime="205.00">
        <walk depart="55.00" departPos="0.00" arrival="260.00" arrivalPos="1.26" duration="205.00" routeLength="305.66" timeLoss="19.63" maxSpeed="1.65"/>
    </personinfo>