<?xml version="1.0" encoding="UTF-8"?>

<!-- generated on 2025-06-12 12:33:13 by Eclipse SUMO sumo Version 1.22.0
<sumoConfiguration xmlns:xsi="http://www.w3.org/2001/XMLSchema-instance" xsi:noNamespaceSchemaLocation="http://sumo.dlr.de/xsd/sumoConfiguration.xsd">

    <input>
        <net-file value="osm.net.xml"/>
        <route-files value="full.rou.xml, ped.rou.xml, truck.rou.xml"/>
        <additional-files value="osm.poly.xml, vtypes.xml"/>
    </input>

    <output>
        <summary-output value="summary.xml"/>
        <tripinfo-output value="E:\licenta\oras-mediu\2025-06-05-11-45-23\baseline_outputs\tripinfo_baseline_ep17.xml"/>
    </output>

    <processing>
        <ignore-route-errors value="true"/>
        <tls.actuated.jam-threshold value="30"/>
    </processing>

    <routing>
        <device.rerouting.adaptation-steps value="18"/>
        <device.rerouting.adaptation-interval value="10"/>
    </routing>

    <report>
        <verbose value="true"/>
        <duration-log.statistics value="true"/>
        <no-step-log value="true"/>
    </report>

    <traci_server>
        <remote-port value="64534"/>
    </traci_server>

    <gui_only>
        <gui-settings-file value="osm.view.xml"/>
    </gui_only>

</sumoConfiguration>
-->

<tripinfos xmlns:xsi="http://www.w3.org/2001/XMLSchema-instance" xsi:noNamespaceSchemaLocation="http://sumo.dlr.de/xsd/tripinfo_file.xsd">
    <tripinfo id="veh52" depart="23.00" departLane="1250915722#4_1" departPos="37.69" departSpeed="0.00" departDelay="0.64" arrival="49.00" arrivalLane="-1250915720#2_1" arrivalPos="2.90" arrivalSpeed="5.36" duration="26.00" routeLength="122.12" waitingTime="0.00" waitingCount="0" stopTime="0.00" timeLoss="3.93" rerouteNo="0" devices="tripinfo_veh52" vType="bicycle" speedFactor="1.00" vaporized=""/>
    <tripinfo id="veh47" depart="21.00" departLane="-48736640#1_1" departPos="41.83" departSpeed="0.00" departDelay="0.79" arrival="71.00" arrivalLane="-48736613#4_1" arrivalPos="22.23" arrivalSpeed="11.74" duration="50.00" routeLength="413.30" waitingTime="2.00" waitingCount="1" stopTime="0.00" timeLoss="13.64" rerouteNo="0" devices="tripinfo_veh47" vType="motorcycle" speedFactor="0.90" vaporized=""/>
    <tripinfo id="veh43" depart="19.00" departLane="-40236228#1_1" departPos="18.27" departSpeed="0.00" departDelay="0.51" arrival="77.00" arrivalLane="48778493#2_1" arrivalPos="44.65" arrivalSpeed="15.78" duration="58.00" routeLength="634.31" waitingTime="0.00" waitingCount="0" stopTime="0.00" timeLoss="16.49" rerouteNo="0" devices="tripinfo_veh43" vType="passenger" speedFactor="1.17" vaporized=""/>
    <tripinfo id="veh42" depart="19.00" departLane="-43544179#10_1" departPos="15.43" departSpeed="0.00" departDelay="0.94" arrival="78.00" arrivalLane="-647226815#0_1" arrivalPos="44.37" arrivalSpeed="14.18" duration="59.00" routeLength="643.65" waitingTime="0.00" waitingCount="0" stopTime="0.00" timeLoss="14.20" rerouteNo="0" devices="tripinfo_veh42" vType="passenger" speedFactor="1.06" vaporized=""/>
    <tripinfo id="veh25" depart="11.00" departLane="-1250915726_1" departPos="120.54" departSpeed="0.00" departDelay="0.25" arrival="83.00" arrivalLane="-1250915720#3_1" arrivalPos="2.51" arrivalSpeed="5.57" duration="72.00" routeLength="388.87" waitingTime="0.00" waitingCount="0" stopTime="0.00" timeLoss="9.10" rerouteNo="0" devices="tripinfo_veh25" vType="passenger" speedFactor="1.12" vaporized=""/>
    <tripinfo id="veh134" depart="58.00" departLane="E41_1" departPos="107.83" departSpeed="0.00" departDelay="0.38" arrival="96.00" arrivalLane="-33913538#5_2" arrivalPos="6.17" arrivalSpeed="13.43" duration="38.00" routeLength="408.05" waitingTime="0.00" waitingCount="0" stopTime="0.00" timeLoss="7.37" rerouteNo="0" devices="tripinfo_veh134" vType="passenger" speedFactor="0.97" vaporized=""/>
    <tripinfo id="veh100" depart="43.00" departLane="43546039#3_1" departPos="43.44" departSpeed="0.00" departDelay="0.00" arrival="100.00" arrivalLane="143207979#0_1" arrivalPos="24.80" arrivalSpeed="12.33" duration="57.00" routeLength="594.50" waitingTime="0.00" waitingCount="0" stopTime="0.00" timeLoss="12.56" rerouteNo="0" devices="tripinfo_veh100" vType="passenger" speedFactor="1.02" vaporized=""/>
    <tripinfo id="veh64" depart="28.00" departLane="43547579#3_1" departPos="91.97" departSpeed="0.00" departDelay="0.48" arrival="105.00" arrivalLane="984521611#1_0" arrivalPos="22.34" arrivalSpeed="5.33" duration="77.00" routeLength="736.58" waitingTime="0.00" waitingCount="0" stopTime="0.00" timeLoss="13.30" rerouteNo="0" devices="tripinfo_veh64" vType="passenger" speedFactor="1.09" vaporized=""/>
    <tripinfo id="veh84" depart="37.00" departLane="-143207979#2_1" departPos="11.74" departSpeed="0.00" departDelay="0.88" arrival="114.00" arrivalLane="43544001#12_1" arrivalPos="78.57" arrivalSpeed="14.92" duration="77.00" routeLength="964.25" waitingTime="0.00" waitingCount="0" stopTime="0.00" timeLoss="10.39" rerouteNo="0" devices="tripinfo_veh84" vType="passenger" speedFactor="1.08" vaporized=""/>
    <tripinfo id="veh39" depart="17.00" departLane="304695350#2_1" departPos="3.37" departSpeed="0.00" departDelay="0.23" arrival="120.00" arrivalLane="-647762524_1" arrivalPos="48.75" arrivalSpeed="14.22" duration="103.00" routeLength="705.63" waitingTime="22.00" waitingCount="4" stopTime="0.00" timeLoss="52.40" rerouteNo="0" devices="tripinfo_veh39" vType="passenger" speedFactor="1.09" vaporized=""/>
    <tripinfo id="veh148" depart="64.00" departLane="-859732803#1_0" departPos="25.88" departSpeed="0.00" departDelay="0.36" arrival="123.00" arrivalLane="984508802_0" arrivalPos="57.38" arrivalSpeed="4.78" duration="59.00" routeLength="368.37" waitingTime="0.00" waitingCount="0" stopTime="0.00" timeLoss="12.28" rerouteNo="0" devices="tripinfo_veh148" vType="passenger" speedFactor="0.93" vaporized=""/>
    <tripinfo id="veh55" depart="24.00" departLane="1251292611_1" departPos="1.29" departSpeed="0.00" departDelay="0.35" arrival="124.00" arrivalLane="40345956#2_1" arrivalPos="20.97" arrivalSpeed="11.81" duration="100.00" routeLength="727.99" waitingTime="0.00" waitingCount="0" stopTime="0.00" timeLoss="16.66" rerouteNo="0" devices="tripinfo_veh55" vType="passenger" speedFactor="0.91" vaporized=""/>
    <tripinfo id="veh75" depart="33.00" departLane="-647998060#1_1" departPos="13.64" departSpeed="0.00" departDelay="0.75" arrival="130.00" arrivalLane="1232511776#1_1" arrivalPos="83.85" arrivalSpeed="14.33" duration="97.00" routeLength="1106.27" waitingTime="0.00" waitingCount="0" stopTime="0.00" timeLoss="18.69" rerouteNo="0" devices="tripinfo_veh75" vType="passenger" speedFactor="1.06" vaporized=""/>
    <tripinfo id="veh98" depart="43.00" departLane="996489799#2_0" departPos="22.02" departSpeed="0.00" departDelay="0.86" arrival="131.00" arrivalLane="-258551284#1_1" arrivalPos="135.26" arrivalSpeed="12.86" duration="88.00" routeLength="777.25" waitingTime="0.00" waitingCount="0" stopTime="0.00" timeLoss="18.65" rerouteNo="0" devices="tripinfo_veh98" vType="motorcycle" speedFactor="0.94" vaporized=""/>
    <tripinfo id="veh136" depart="59.00" departLane="250295383#1_1" departPos="22.63" departSpeed="0.00" departDelay="0.52" arrival="131.00" arrivalLane="48778475#0_1" arrivalPos="50.36" arrivalSpeed="14.77" duration="72.00" routeLength="829.06" waitingTime="0.00" waitingCount="0" stopTime="0.00" timeLoss="16.13" rerouteNo="0" devices="tripinfo_veh136" vType="passenger" speedFactor="1.13" vaporized=""/>
    <tripinfo id="veh57" depart="25.00" departLane="-859732801#1_1" departPos="3.85" departSpeed="0.00" departDelay="0.49" arrival="132.00" arrivalLane="-33909936#1_1" arrivalPos="133.03" arrivalSpeed="13.58" duration="107.00" routeLength="1143.74" waitingTime="0.00" waitingCount="0" stopTime="0.00" timeLoss="21.67" rerouteNo="0" devices="tripinfo_veh57" vType="passenger" speedFactor="1.02" vaporized=""/>
    <tripinfo id="veh78" depart="34.00" departLane="353939585#0_1" departPos="19.53" departSpeed="0.00" departDelay="0.46" arrival="133.00" arrivalLane="48778489#3_1" arrivalPos="140.23" arrivalSpeed="15.26" duration="99.00" routeLength="1111.75" waitingTime="1.00" waitingCount="1" stopTime="0.00" timeLoss="24.58" rerouteNo="0" devices="tripinfo_veh78" vType="passenger" speedFactor="1.14" vaporized=""/>
    <tripinfo id="veh15" depart="7.00" departLane="401741889#1_1" departPos="23.48" departSpeed="0.00" departDelay="0.55" arrival="135.00" arrivalLane="43546648#6_1" arrivalPos="186.87" arrivalSpeed="13.59" duration="128.00" routeLength="1121.24" waitingTime="21.00" waitingCount="1" stopTime="0.00" timeLoss="44.81" rerouteNo="0" devices="tripinfo_veh15" vType="passenger" speedFactor="1.02" vaporized=""/>
    <tripinfo id="veh88" depart="38.00" departLane="-43546105#3_1" departPos="33.36" departSpeed="0.00" departDelay="0.16" arrival="135.00" arrivalLane="-40236144#1_1" arrivalPos="53.50" arrivalSpeed="16.62" duration="97.00" routeLength="1384.87" waitingTime="0.00" waitingCount="0" stopTime="0.00" timeLoss="15.77" rerouteNo="0" devices="tripinfo_veh88" vType="passenger" speedFactor="1.25" vaporized=""/>
    <tripinfo id="veh6" depart="3.00" departLane="-40345956#0_1" departPos="68.29" departSpeed="0.00" departDelay="0.42" arrival="142.00" arrivalLane="48778514#1_1" arrivalPos="264.87" arrivalSpeed="12.50" duration="139.00" routeLength="1354.60" waitingTime="11.00" waitingCount="1" stopTime="0.00" timeLoss="30.02" rerouteNo="0" devices="tripinfo_veh6" vType="passenger" speedFactor="0.92" vaporized=""/>
    <tripinfo id="veh14" depart="7.00" departLane="48736639#1_1" departPos="12.25" departSpeed="0.00" departDelay="0.98" arrival="144.00" arrivalLane="E23_1" arrivalPos="246.50" arrivalSpeed="12.99" duration="137.00" routeLength="1014.09" waitingTime="42.00" waitingCount="2" stopTime="0.00" timeLoss="61.29" rerouteNo="0" devices="tripinfo_veh14" vType="emergency" speedFactor="1.00" vaporized=""/>
    <tripinfo id="veh152" depart="66.00" departLane="-40295499#0_1" departPos="3.37" departSpeed="0.00" departDelay="0.64" arrival="145.00" arrivalLane="-353939574_0" arrivalPos="189.91" arrivalSpeed="6.06" duration="79.00" routeLength="802.66" waitingTime="0.00" waitingCount="0" stopTime="0.00" timeLoss="11.07" rerouteNo="0" devices="tripinfo_veh152" vType="passenger" speedFactor="1.18" vaporized=""/>
    <tripinfo id="veh13" depart="6.00" departLane="859728205_0" departPos="21.48" departSpeed="0.00" departDelay="0.41" arrival="146.00" arrivalLane="354252039#0_1" arrivalPos="50.46" arrivalSpeed="13.35" duration="140.00" routeLength="1483.47" waitingTime="2.00" waitingCount="1" stopTime="0.00" timeLoss="20.29" rerouteNo="0" devices="tripinfo_veh13" vType="delivery" speedFactor="0.97" vaporized=""/>
    <tripinfo id="veh99" depart="43.00" departLane="-48778492_1" departPos="34.47" departSpeed="0.00" departDelay="0.43" arrival="151.00" arrivalLane="-40304754#5_1" arrivalPos="153.81" arrivalSpeed="13.99" duration="108.00" routeLength="1087.23" waitingTime="2.00" waitingCount="1" stopTime="0.00" timeLoss="27.24" rerouteNo="0" devices="tripinfo_veh99" vType="passenger" speedFactor="1.03" vaporized=""/>
    <tripinfo id="veh7" depart="4.00" departLane="48736613#1_1" departPos="52.53" departSpeed="0.00" departDelay="0.99" arrival="152.00" arrivalLane="40236232#1_1" arrivalPos="114.84" arrivalSpeed="15.28" duration="148.00" routeLength="1188.96" waitingTime="44.00" waitingCount="1" stopTime="0.00" timeLoss="69.38" rerouteNo="0" devices="tripinfo_veh7" vType="passenger" speedFactor="1.12" vaporized=""/>
    <tripinfo id="veh109" depart="47.00" departLane="-43546688#1_1" departPos="37.23" departSpeed="0.00" departDelay="0.13" arrival="152.00" arrivalLane="1135856746#0_1" arrivalPos="10.90" arrivalSpeed="8.85" duration="105.00" routeLength="1179.84" waitingTime="0.00" waitingCount="0" stopTime="0.00" timeLoss="19.51" rerouteNo="0" devices="tripinfo_veh109" vType="passenger" speedFactor="1.04" vaporized=""/>
    <tripinfo id="veh248" depart="107.00" departLane="-1250915722#5_1" departPos="36.21" departSpeed="0.00" departDelay="0.36" arrival="152.00" arrivalLane="1250915722#0_1" arrivalPos="65.49" arrivalSpeed="4.81" duration="45.00" routeLength="215.71" waitingTime="0.00" waitingCount="0" stopTime="0.00" timeLoss="5.90" rerouteNo="0" devices="tripinfo_veh248" vType="emergency" speedFactor="1.00" vaporized=""/>
    <tripinfo id="veh83" depart="36.00" departLane="-48736631_1" departPos="69.98" departSpeed="0.00" departDelay="0.31" arrival="153.00" arrivalLane="-48736666#0_1" arrivalPos="53.08" arrivalSpeed="12.15" duration="117.00" routeLength="1191.71" waitingTime="0.00" waitingCount="0" stopTime="0.00" timeLoss="15.33" rerouteNo="0" devices="tripinfo_veh83" vType="passenger" speedFactor="0.89" vaporized=""/>
    <tripinfo id="veh222" depart="96.00" departLane="-222608881#0_1" departPos="146.68" departSpeed="0.00" departDelay="0.54" arrival="153.00" arrivalLane="43544138#3_1" arrivalPos="46.01" arrivalSpeed="12.58" duration="57.00" routeLength="547.92" waitingTime="0.00" waitingCount="0" stopTime="0.00" timeLoss="12.37" rerouteNo="0" devices="tripinfo_veh222" vType="passenger" speedFactor="0.94" vaporized=""/>
    <tripinfo id="veh20" depart="9.00" departLane="273835688_1" departPos="53.34" departSpeed="0.00" departDelay="0.40" arrival="156.00" arrivalLane="-48736613#3_1" arrivalPos="41.47" arrivalSpeed="13.17" duration="147.00" routeLength="955.24" waitingTime="53.00" waitingCount="2" stopTime="0.00" timeLoss="78.28" rerouteNo="0" devices="tripinfo_veh20" vType="passenger" speedFactor="1.03" vaporized=""/>
    <tripinfo id="veh188" depart="81.00" departLane="-48778498#1_1" departPos="13.40" departSpeed="0.00" departDelay="0.16" arrival="159.00" arrivalLane="-40236228#1_1" arrivalPos="43.16" arrivalSpeed="14.04" duration="78.00" routeLength="853.36" waitingTime="0.00" waitingCount="0" stopTime="0.00" timeLoss="16.17" rerouteNo="0" devices="tripinfo_veh188" vType="passenger" speedFactor="1.06" vaporized=""/>
    <tripinfo id="veh76" depart="33.00" departLane="-48778498#2_1" departPos="92.21" departSpeed="0.00" departDelay="0.32" arrival="160.00" arrivalLane="48778472_1" arrivalPos="49.54" arrivalSpeed="11.20" duration="127.00" routeLength="1040.21" waitingTime="16.00" waitingCount="2" stopTime="0.00" timeLoss="36.26" rerouteNo="0" devices="tripinfo_veh76" vType="passenger" speedFactor="0.86" vaporized=""/>
    <tripinfo id="veh53" depart="23.00" departLane="48778487#1_1" departPos="269.66" departSpeed="0.00" departDelay="0.21" arrival="161.00" arrivalLane="-143207979#8_1" arrivalPos="38.62" arrivalSpeed="13.01" duration="138.00" routeLength="1421.63" waitingTime="3.00" waitingCount="1" stopTime="0.00" timeLoss="28.34" rerouteNo="0" devices="tripinfo_veh53" vType="delivery" speedFactor="0.99" vaporized=""/>
    <personinfo id="ped17" depart="85.00" type="DEFAULT_PEDTYPE" speedFactor="1.00" duration="78.00" waitingTime="0.00" timeLoss="8.63" traveltime="78.00">
        <walk depart="85.00" departPos="0.00" arrival="163.00" arrivalPos="84.78" duration="78.00" routeLength="96.43" timeLoss="8.63" maxSpeed="1.39"/>
    </personinfo>
    <tripinfo id="veh86" depart="37.00" departLane="-48778512_1" departPos="48.64" departSpeed="0.00" departDelay="0.02" arrival="165.00" arrivalLane="43546039#3_1" arrivalPos="47.87" arrivalSpeed="12.38" duration="128.00" routeLength="1386.96" waitingTime="0.00" waitingCount="0" stopTime="0.00" timeLoss="18.92" rerouteNo="0" devices="tripinfo_veh86" vType="passenger" speedFactor="0.98" vaporized=""/>
    <tripinfo id="veh269" depart="116.00" departLane="43544001#6_1" departPos="27.70" departSpeed="0.00" departDelay="0.33" arrival="166.00" arrivalLane="43544046_1" arrivalPos="104.15" arrivalSpeed="11.77" duration="50.00" routeLength="550.79" waitingTime="0.00" waitingCount="0" stopTime="0.00" timeLoss="6.73" rerouteNo="0" devices="tripinfo_veh269" vType="passenger" speedFactor="0.94" vaporized=""/>
    <tripinfo id="veh150" depart="65.00" departLane="E37_1" departPos="8.39" departSpeed="0.00" departDelay="0.50" arrival="173.00" arrivalLane="-48736612#5_1" arrivalPos="15.57" arrivalSpeed="11.97" duration="108.00" routeLength="706.38" waitingTime="27.00" waitingCount="1" stopTime="0.00" timeLoss="40.37" rerouteNo="0" devices="tripinfo_veh150" vType="passenger" speedFactor="0.91" vaporized=""/>
    <tripinfo id="veh107" depart="47.00" departLane="-43573573#3_1" departPos="37.94" departSpeed="0.00" departDelay="0.99" arrival="175.00" arrivalLane="43544624#3_1" arrivalPos="179.18" arrivalSpeed="10.42" duration="128.00" routeLength="1415.42" waitingTime="0.00" waitingCount="0" stopTime="0.00" timeLoss="24.09" rerouteNo="0" devices="tripinfo_veh107" vType="passenger" speedFactor="1.03" vaporized=""/>
    <tripinfo id="veh4" depart="2.00" departLane="-40314583#2_1" departPos="121.18" departSpeed="0.00" departDelay="0.28" arrival="176.00" arrivalLane="250295383#4_1" arrivalPos="21.91" arrivalSpeed="13.41" duration="174.00" routeLength="1678.89" waitingTime="13.00" waitingCount="2" stopTime="0.00" timeLoss="52.16" rerouteNo="0" devices="tripinfo_veh4" vType="passenger" speedFactor="1.02" vaporized=""/>
    <tripinfo id="veh141" depart="61.00" departLane="40265780#1_1" departPos="27.29" departSpeed="0.00" departDelay="0.37" arrival="176.00" arrivalLane="48778485#1_1" arrivalPos="18.27" arrivalSpeed="12.14" duration="115.00" routeLength="738.38" waitingTime="32.00" waitingCount="2" stopTime="0.00" timeLoss="54.71" rerouteNo="0" devices="tripinfo_veh141" vType="passenger" speedFactor="0.96" vaporized=""/>
    <tripinfo id="veh2" depart="1.00" departLane="48778517#0_1" departPos="21.44" departSpeed="0.00" departDelay="0.14" arrival="179.00" arrivalLane="-1136301812#1_1" arrivalPos="6.69" arrivalSpeed="8.75" duration="178.00" routeLength="2078.15" waitingTime="0.00" waitingCount="0" stopTime="0.00" timeLoss="31.38" rerouteNo="0" devices="tripinfo_veh2" vType="passenger" speedFactor="1.08" vaporized=""/>
    <tripinfo id="veh22" depart="10.00" departLane="48736611#1_1" departPos="4.69" departSpeed="0.00" departDelay="0.54" arrival="179.00" arrivalLane="40269009#0_1" arrivalPos="22.67" arrivalSpeed="13.03" duration="169.00" routeLength="1613.74" waitingTime="18.00" waitingCount="1" stopTime="0.00" timeLoss="60.56" rerouteNo="0" devices="tripinfo_veh22" vType="passenger" speedFactor="1.13" vaporized=""/>
    <tripinfo id="veh69" depart="30.00" departLane="-48778514#1_1" departPos="239.30" departSpeed="0.00" departDelay="0.33" arrival="181.00" arrivalLane="859732803#0_0" arrivalPos="20.07" arrivalSpeed="4.58" duration="151.00" routeLength="1234.07" waitingTime="31.00" waitingCount="2" stopTime="0.00" timeLoss="53.93" rerouteNo="0" devices="tripinfo_veh69" vType="passenger" speedFactor="0.98" vaporized=""/>
    <tripinfo id="veh32" depart="14.00" departLane="-92198452#2_1" departPos="27.90" departSpeed="0.00" departDelay="0.24" arrival="182.00" arrivalLane="-945793491#0_1" arrivalPos="34.62" arrivalSpeed="4.78" duration="168.00" routeLength="1311.75" waitingTime="0.00" waitingCount="0" stopTime="0.00" timeLoss="23.00" rerouteNo="0" devices="tripinfo_veh32" vType="passenger" speedFactor="1.03" vaporized=""/>
    <tripinfo id="veh96" depart="42.00" departLane="-1136283379#1_1" departPos="28.69" departSpeed="0.00" departDelay="0.72" arrival="187.00" arrivalLane="-48736613#2_1" arrivalPos="169.77" arrivalSpeed="10.62" duration="145.00" routeLength="1227.52" waitingTime="31.00" waitingCount="1" stopTime="0.00" timeLoss="50.88" rerouteNo="0" devices="tripinfo_veh96" vType="motorcycle" speedFactor="0.98" vaporized=""/>
    <tripinfo id="veh0" depart="0.00" departLane="48736612#2_1" departPos="46.94" departSpeed="0.00" departDelay="0.00" arrival="188.00" arrivalLane="492965073#9_1" arrivalPos="76.43" arrivalSpeed="12.10" duration="188.00" routeLength="1509.28" waitingTime="45.00" waitingCount="4" stopTime="0.00" timeLoss="74.59" rerouteNo="0" devices="tripinfo_veh0" vType="motorcycle" speedFactor="0.98" vaporized=""/>
    <tripinfo id="veh135" depart="59.00" departLane="-48778500#0_1" departPos="1.96" departSpeed="0.00" departDelay="0.95" arrival="188.00" arrivalLane="48778478#1_1" arrivalPos="66.33" arrivalSpeed="10.60" duration="129.00" routeLength="1199.12" waitingTime="2.00" waitingCount="1" stopTime="0.00" timeLoss="28.59" rerouteNo="0" devices="tripinfo_veh135" vType="motorcycle" speedFactor="0.91" vaporized=""/>
    <tripinfo id="veh66" depart="29.00" departLane="-1136289992_1" departPos="8.56" departSpeed="0.00" departDelay="0.62" arrival="194.00" arrivalLane="222605087#0_1" arrivalPos="20.28" arrivalSpeed="4.78" duration="165.00" routeLength="1678.87" waitingTime="2.00" waitingCount="1" stopTime="0.00" timeLoss="21.70" rerouteNo="0" devices="tripinfo_veh66" vType="passenger" speedFactor="0.90" vaporized=""/>
    <tripinfo id="veh12" depart="6.00" departLane="-43544001#13_1" departPos="68.69" departSpeed="0.00" departDelay="0.84" arrival="197.00" arrivalLane="48736647#1_1" arrivalPos="90.38" arrivalSpeed="14.04" duration="191.00" routeLength="2290.59" waitingTime="0.00" waitingCount="0" stopTime="0.00" timeLoss="29.32" rerouteNo="0" devices="tripinfo_veh12" vType="passenger" speedFactor="1.04" vaporized=""/>
    <tripinfo id="veh87" depart="38.00" departLane="43545645#0_1" departPos="6.61" departSpeed="0.00" departDelay="0.59" arrival="197.00" arrivalLane="671642313_1" arrivalPos="16.40" arrivalSpeed="9.01" duration="159.00" routeLength="1920.48" waitingTime="0.00" waitingCount="0" stopTime="0.00" timeLoss="21.32" rerouteNo="0" devices="tripinfo_veh87" vType="delivery" speedFactor="1.03" vaporized=""/>
    <tripinfo id="veh102" depart="44.00" departLane="43546343#1_1" departPos="0.35" departSpeed="0.00" departDelay="0.14" arrival="197.00" arrivalLane="48736655_1" arrivalPos="17.43" arrivalSpeed="9.95" duration="153.00" routeLength="1638.66" waitingTime="5.00" waitingCount="2" stopTime="0.00" timeLoss="34.65" rerouteNo="0" devices="tripinfo_veh102" vType="passenger" speedFactor="1.03" vaporized=""/>
    <tripinfo id="veh115" depart="50.00" departLane="859728208#0_0" departPos="13.05" departSpeed="0.00" departDelay="0.55" arrival="198.00" arrivalLane="48778464#0_1" arrivalPos="23.97" arrivalSpeed="10.75" duration="148.00" routeLength="1171.54" waitingTime="24.00" waitingCount="2" stopTime="0.00" timeLoss="51.91" rerouteNo="0" devices="tripinfo_veh115" vType="passenger" speedFactor="1.06" vaporized=""/>
    <personinfo id="ped2" depart="10.00" type="DEFAULT_PEDTYPE" speedFactor="1.05" duration="190.00" waitingTime="0.00" timeLoss="19.65" traveltime="190.00">
        <walk depart="10.00" departPos="0.00" arrival="200.00" arrivalPos="17.45" duration="190.00" routeLength="249.38" timeLoss="19.65" maxSpeed="1.46"/>
    </personinfo>
    <tripinfo id="veh50" depart="22.00" departLane="-48778524#3_1" departPos="27.46" departSpeed="0.00" departDelay="0.50" arrival="200.00" arrivalLane="-48778499#0_1" arrivalPos="44.27" arrivalSpeed="12.73" duration="178.00" routeLength="1900.22" waitingTime="0.00" waitingCount="0" stopTime="0.00" timeLoss="34.40" rerouteNo="0" devices="tripinfo_veh50" vType="passenger" speedFactor="1.00" vaporized=""/>
    <tripinfo id="veh287" depart="124.00" departLane="-43544179#1_1" departPos="18.63" departSpeed="0.00" departDelay="0.59" arrival="201.00" arrivalLane="-383582511#1_0" arrivalPos="6.21" arrivalSpeed="2.82" duration="77.00" routeLength="884.75" waitingTime="0.00" waitingCount="0" stopTime="0.00" timeLoss="9.70" rerouteNo="0" devices="tripinfo_veh287" vType="passenger" speedFactor="1.02" vaporized=""/>
    <tripinfo id="veh382" depart="165.00" departLane="1232511776#1_1" departPos="20.85" departSpeed="0.00" departDelay="0.74" arrival="201.00" arrivalLane="1136289990_1" arrivalPos="14.40" arrivalSpeed="7.22" duration="36.00" routeLength="311.48" waitingTime="0.00" waitingCount="0" stopTime="0.00" timeLoss="6.58" rerouteNo="0" devices="tripinfo_veh382" vType="passenger" speedFactor="0.91" vaporized=""/>
    <tripinfo id="veh160" depart="69.00" departLane="48797772_1" departPos="6.18" departSpeed="0.00" departDelay="0.20" arrival="202.00" arrivalLane="-859732802#0_0" arrivalPos="5.60" arrivalSpeed="4.26" duration="133.00" routeLength="1244.13" waitingTime="0.00" waitingCount="0" stopTime="0.00" timeLoss="32.23" rerouteNo="0" devices="tripinfo_veh160" vType="passenger" speedFactor="1.00" vaporized=""/>
    <tripinfo id="veh80" depart="35.00" departLane="251916699#2_1" departPos="18.66" departSpeed="0.00" departDelay="0.60" arrival="203.00" arrivalLane="-43545645#0_1" arrivalPos="219.07" arrivalSpeed="13.77" duration="168.00" routeLength="1971.22" waitingTime="0.00" waitingCount="0" stopTime="0.00" timeLoss="21.78" rerouteNo="0" devices="tripinfo_veh80" vType="emergency" speedFactor="1.00" vaporized=""/>
    <tripinfo id="veh17" depart="8.00" departLane="43546053#0_1" departPos="280.22" departSpeed="0.00" departDelay="0.69" arrival="204.00" arrivalLane="-354259933#0_1" arrivalPos="10.70" arrivalSpeed="11.94" duration="196.00" routeLength="1837.82" waitingTime="5.00" waitingCount="2" stopTime="0.00" timeLoss="40.09" rerouteNo="0" devices="tripinfo_veh17" vType="passenger" speedFactor="0.89" vaporized=""/>
    <tripinfo id="veh49" depart="22.00" departLane="-40345930_1" departPos="12.02" departSpeed="0.00" departDelay="0.93" arrival="204.00" arrivalLane="859729932_0" arrivalPos="83.63" arrivalSpeed="5.67" duration="182.00" routeLength="1538.23" waitingTime="43.00" waitingCount="1" stopTime="0.00" timeLoss="60.83" rerouteNo="0" devices="tripinfo_veh49" vType="passenger" speedFactor="1.02" vaporized=""/>
    <tripinfo id="veh124" depart="54.00" departLane="67736383_1" departPos="21.86" departSpeed="0.00" departDelay="0.68" arrival="205.00" arrivalLane="354259933#2_1" arrivalPos="84.82" arrivalSpeed="14.66" duration="151.00" routeLength="1771.47" waitingTime="0.00" waitingCount="0" stopTime="0.00" timeLoss="26.83" rerouteNo="0" devices="tripinfo_veh124" vType="passenger" speedFactor="1.07" vaporized=""/>
    <tripinfo id="veh18" depart="8.00" departLane="-43573769#0_1" departPos="17.73" departSpeed="0.00" departDelay="0.26" arrival="208.00" arrivalLane="671642318#0_1" arrivalPos="87.54" arrivalSpeed="13.77" duration="200.00" routeLength="2434.91" waitingTime="0.00" waitingCount="0" stopTime="0.00" timeLoss="22.17" rerouteNo="0" devices="tripinfo_veh18" vType="passenger" speedFactor="1.01" vaporized=""/>
    <tripinfo id="veh111" depart="48.00" departLane="258551297#0_0" departPos="6.93" departSpeed="0.00" departDelay="0.27" arrival="208.00" arrivalLane="-E10_2" arrivalPos="114.86" arrivalSpeed="13.57" duration="160.00" routeLength="1384.92" waitingTime="27.00" waitingCount="1" stopTime="0.00" timeLoss="44.08" rerouteNo="0" devices="tripinfo_veh111" vType="passenger" speedFactor="1.01" vaporized=""/>
    <tripinfo id="veh156" depart="68.00" departLane="-40304754#2_1" departPos="72.93" departSpeed="0.00" departDelay="0.92" arrival="208.00" arrivalLane="48778431#4_2" arrivalPos="151.14" arrivalSpeed="14.06" duration="140.00" routeLength="1765.29" waitingTime="0.00" waitingCount="0" stopTime="0.00" timeLoss="19.11" rerouteNo="0" devices="tripinfo_veh156" vType="passenger" speedFactor="1.07" vaporized=""/>
    <tripinfo id="veh123" depart="53.00" departLane="-33909936#4_1" departPos="14.51" departSpeed="0.00" departDelay="0.11" arrival="209.00" arrivalLane="-945794111_1" arrivalPos="62.47" arrivalSpeed="7.21" duration="156.00" routeLength="1389.62" waitingTime="11.00" waitingCount="1" stopTime="0.00" timeLoss="35.04" rerouteNo="0" devices="tripinfo_veh123" vType="passenger" speedFactor="0.94" vaporized=""/>
    <tripinfo id="veh24" depart="11.00" departLane="-48736666#0_1" departPos="6.66" departSpeed="0.00" departDelay="0.68" arrival="210.00" arrivalLane="-92198452#0_1" arrivalPos="23.46" arrivalSpeed="15.28" duration="199.00" routeLength="2308.87" waitingTime="19.00" waitingCount="2" stopTime="0.00" timeLoss="52.01" rerouteNo="0" devices="tripinfo_veh24" vType="passenger" speedFactor="1.15" vaporized=""/>
    <tripinfo id="veh29" depart="13.00" departLane="-48778508#5_1" departPos="26.83" departSpeed="0.00" departDelay="0.53" arrival="210.00" arrivalLane="859737784_1" arrivalPos="96.91" arrivalSpeed="12.18" duration="197.00" routeLength="2150.53" waitingTime="0.00" waitingCount="0" stopTime="0.00" timeLoss="20.21" rerouteNo="0" devices="tripinfo_veh29" vType="passenger" speedFactor="0.94" vaporized=""/>
    <tripinfo id="veh56" depart="25.00" departLane="43544001#1_1" departPos="20.82" departSpeed="0.00" departDelay="0.92" arrival="213.00" arrivalLane="-996984133_1" arrivalPos="75.36" arrivalSpeed="7.77" duration="188.00" routeLength="2042.37" waitingTime="0.00" waitingCount="0" stopTime="0.00" timeLoss="23.39" rerouteNo="0" devices="tripinfo_veh56" vType="passenger" speedFactor="0.95" vaporized=""/>
    <tripinfo id="veh142" depart="62.00" departLane="383582508#0_0" departPos="9.89" departSpeed="0.00" departDelay="0.94" arrival="213.00" arrivalLane="-383582518#0_0" arrivalPos="49.42" arrivalSpeed="3.14" duration="151.00" routeLength="1516.69" waitingTime="0.00" waitingCount="0" stopTime="0.00" timeLoss="26.41" rerouteNo="0" devices="tripinfo_veh142" vType="motorcycle" speedFactor="1.02" vaporized=""/>
    <tripinfo id="veh279" depart="120.00" departLane="-43544046_1" departPos="7.89" departSpeed="0.00" departDelay="0.03" arrival="213.00" arrivalLane="-289113778#0_1" arrivalPos="105.65" arrivalSpeed="13.98" duration="93.00" routeLength="849.01" waitingTime="13.00" waitingCount="2" stopTime="0.00" timeLoss="33.99" rerouteNo="0" devices="tripinfo_veh279" vType="delivery" speedFactor="1.08" vaporized=""/>