<?xml version="1.0" encoding="UTF-8"?>

<!-- generated on 2025-06-12 12:32:49 by Eclipse SUMO sumo Version 1.22.0
<sumoConfiguration xmlns:xsi="http://www.w3.org/2001/XMLSchema-instance" xsi:noNamespaceSchemaLocation="http://sumo.dlr.de/xsd/sumoConfiguration.xsd">

    <input>
        <net-file value="osm.net.xml"/>
        <route-files value="full.rou.xml, ped.rou.xml, truck.rou.xml"/>
        <additional-files value="osm.poly.xml, vtypes.xml"/>
    </input>

    <output>
        <summary-output value="summary.xml"/>
        <tripinfo-output value="E:\licenta\oras-mediu\2025-06-05-11-45-23\baseline_outputs\tripinfo_baseline_ep15.xml"/>
    </output>

    <processing>
        <ignore-route-errors value="true"/>
        <tls.actuated.jam-threshold value="30"/>
    </processing>

    <routing>
        <device.rerouting.adaptation-steps value="18"/>
        <device.rerouting.adaptation-interval value="10"/>
    </routing>

    <report>
        <verbose value="true"/>
        <duration-log.statistics value="true"/>
        <no-step-log value="true"/>
    </report>

    <traci_server>
        <remote-port value="64521"/>
    </traci_server>

    <gui_only>
        <gui-settings-file value="osm.view.xml"/>
    </gui_only>

</sumoConfiguration>
-->

<tripinfos xmlns:xsi="http://www.w3.org/2001/XMLSchema-instance" xsi:noNamespaceSchemaLocation="http://sumo.dlr.de/xsd/tripinfo_file.xsd">
    <tripinfo id="veh10" depart="6.00" departLane="-43545645#1_1" departPos="86.50" departSpeed="0.00" departDelay="0.00" arrival="42.00" arrivalLane="-43546064#0_1" arrivalPos="168.39" arrivalSpeed="14.36" duration="36.00" routeLength="376.48" waitingTime="0.00" waitingCount="0" stopTime="0.00" timeLoss="7.99" rerouteNo="0" devices="tripinfo_veh10" vType="passenger" speedFactor="1.04" vaporized=""/>
    <tripinfo id="veh84" depart="51.00" departLane="-222605087#2_1" departPos="8.03" departSpeed="0.00" departDelay="0.60" arrival="68.00" arrivalLane="-222605087#0_1" arrivalPos="20.52" arrivalSpeed="5.90" duration="17.00" routeLength="86.02" waitingTime="0.00" waitingCount="0" stopTime="0.00" timeLoss="2.45" rerouteNo="0" devices="tripinfo_veh84" vType="passenger" speedFactor="1.08" vaporized=""/>
    <tripinfo id="veh48" depart="29.00" departLane="43546057_1" departPos="219.30" departSpeed="0.00" departDelay="0.20" arrival="75.00" arrivalLane="-43544179#8_1" arrivalPos="43.05" arrivalSpeed="14.81" duration="46.00" routeLength="553.01" waitingTime="0.00" waitingCount="0" stopTime="0.00" timeLoss="8.61" rerouteNo="0" devices="tripinfo_veh48" vType="passenger" speedFactor="1.12" vaporized=""/>
    <tripinfo id="veh5" depart="3.00" departLane="-143207982#1_1" departPos="22.01" departSpeed="0.00" departDelay="0.00" arrival="76.00" arrivalLane="48736655_1" arrivalPos="17.43" arrivalSpeed="12.69" duration="73.00" routeLength="333.22" waitingTime="33.00" waitingCount="1" stopTime="0.00" timeLoss="48.08" rerouteNo="0" devices="tripinfo_veh5" vType="delivery" speedFactor="1.05" vaporized=""/>
    <tripinfo id="veh40" depart="24.00" departLane="-43546449#0_1" departPos="29.75" departSpeed="0.00" departDelay="0.00" arrival="81.00" arrivalLane="-492965073#8_1" arrivalPos="91.38" arrivalSpeed="14.94" duration="57.00" routeLength="569.34" waitingTime="0.00" waitingCount="0" stopTime="0.00" timeLoss="17.99" rerouteNo="0" devices="tripinfo_veh40" vType="passenger" speedFactor="1.17" vaporized=""/>
    <tripinfo id="veh13" depart="8.00" departLane="-40265774#1_1" departPos="38.92" departSpeed="0.00" departDelay="0.20" arrival="90.00" arrivalLane="-43546519#2_1" arrivalPos="8.00" arrivalSpeed="8.55" duration="82.00" routeLength="795.61" waitingTime="0.00" waitingCount="0" stopTime="0.00" timeLoss="20.26" rerouteNo="0" devices="tripinfo_veh13" vType="passenger" speedFactor="1.02" vaporized=""/>
    <tripinfo id="veh17" depart="11.00" departLane="43544179#6_1" departPos="33.96" departSpeed="0.00" departDelay="0.80" arrival="91.00" arrivalLane="-48778526_1" arrivalPos="97.35" arrivalSpeed="13.83" duration="80.00" routeLength="904.03" waitingTime="0.00" waitingCount="0" stopTime="0.00" timeLoss="12.95" rerouteNo="0" devices="tripinfo_veh17" vType="passenger" speedFactor="1.01" vaporized=""/>
    <tripinfo id="veh72" depart="44.00" departLane="-492965073#8_1" departPos="52.68" departSpeed="0.00" departDelay="0.80" arrival="96.00" arrivalLane="-48736638#1_1" arrivalPos="84.57" arrivalSpeed="10.80" duration="52.00" routeLength="482.74" waitingTime="0.00" waitingCount="0" stopTime="0.00" timeLoss="7.98" rerouteNo="0" devices="tripinfo_veh72" vType="passenger" speedFactor="0.83" vaporized=""/>
    <tripinfo id="veh42" depart="26.00" departLane="48778493#2_1" departPos="21.43" departSpeed="0.00" departDelay="0.80" arrival="106.00" arrivalLane="48778499#0_1" arrivalPos="44.27" arrivalSpeed="12.17" duration="80.00" routeLength="733.91" waitingTime="0.00" waitingCount="0" stopTime="0.00" timeLoss="18.35" rerouteNo="0" devices="tripinfo_veh42" vType="motorcycle" speedFactor="1.00" vaporized=""/>
    <tripinfo id="veh19" depart="12.00" departLane="-43573547#6_1" departPos="7.05" departSpeed="0.00" departDelay="0.60" arrival="118.00" arrivalLane="-43573573#2_1" arrivalPos="202.87" arrivalSpeed="13.79" duration="106.00" routeLength="1219.04" waitingTime="0.00" waitingCount="0" stopTime="0.00" timeLoss="18.58" rerouteNo="0" devices="tripinfo_veh19" vType="passenger" speedFactor="1.03" vaporized=""/>
    <tripinfo id="veh126" depart="76.00" departLane="222605087#1_1" departPos="14.45" departSpeed="0.00" departDelay="0.40" arrival="118.00" arrivalLane="-222605084#2_1" arrivalPos="1.50" arrivalSpeed="3.99" duration="42.00" routeLength="169.81" waitingTime="0.00" waitingCount="0" stopTime="0.00" timeLoss="7.70" rerouteNo="0" devices="tripinfo_veh126" vType="passenger" speedFactor="0.91" vaporized=""/>
    <tripinfo id="veh81" depart="49.00" departLane="43573769#1_1" departPos="46.00" departSpeed="0.00" departDelay="0.40" arrival="124.00" arrivalLane="-222609002#2_1" arrivalPos="15.40" arrivalSpeed="12.73" duration="75.00" routeLength="802.54" waitingTime="0.00" waitingCount="0" stopTime="0.00" timeLoss="14.01" rerouteNo="0" devices="tripinfo_veh81" vType="delivery" speedFactor="0.98" vaporized=""/>
    <tripinfo id="veh73" depart="44.00" departLane="222605084#7_1" departPos="19.51" departSpeed="0.00" departDelay="0.20" arrival="125.00" arrivalLane="-992542694_0" arrivalPos="55.17" arrivalSpeed="5.37" duration="81.00" routeLength="548.15" waitingTime="0.00" waitingCount="0" stopTime="0.00" timeLoss="10.91" rerouteNo="0" devices="tripinfo_veh73" vType="passenger" speedFactor="1.05" vaporized=""/>
    <personinfo id="ped15" depart="75.00" type="DEFAULT_PEDTYPE" speedFactor="0.92" duration="51.00" waitingTime="0.00" timeLoss="5.19" traveltime="51.00">
        <walk depart="75.00" departPos="0.00" arrival="126.00" arrivalPos="7.20" duration="51.00" routeLength="58.81" timeLoss="5.19" maxSpeed="1.28"/>
    </personinfo>
    <tripinfo id="veh41" depart="25.00" departLane="-945793491#1_1" departPos="17.40" departSpeed="0.00" departDelay="0.40" arrival="126.00" arrivalLane="992542691_0" arrivalPos="24.23" arrivalSpeed="5.55" duration="101.00" routeLength="774.94" waitingTime="0.00" waitingCount="0" stopTime="0.00" timeLoss="17.39" rerouteNo="0" devices="tripinfo_veh41" vType="passenger" speedFactor="1.05" vaporized=""/>
    <personinfo id="ped22" depart="110.00" type="DEFAULT_PEDTYPE" speedFactor="1.01" duration="19.00" waitingTime="0.00" timeLoss="1.84" traveltime="19.00">
        <walk depart="110.00" departPos="0.00" arrival="129.00" arrivalPos="1.81" duration="19.00" routeLength="23.98" timeLoss="1.84" maxSpeed="1.40"/>
    </personinfo>
    <tripinfo id="veh65" depart="39.00" departLane="48778431#1_2" departPos="3.11" departSpeed="0.00" departDelay="0.00" arrival="140.00" arrivalLane="43544197#8_1" arrivalPos="132.38" arrivalSpeed="11.73" duration="101.00" routeLength="964.84" waitingTime="0.00" waitingCount="0" stopTime="0.00" timeLoss="18.52" rerouteNo="0" devices="tripinfo_veh65" vType="passenger" speedFactor="0.90" vaporized=""/>
    <tripinfo id="veh28" depart="17.00" departLane="143207982#0_1" departPos="12.56" departSpeed="0.00" departDelay="0.20" arrival="149.00" arrivalLane="48736612#6_1" arrivalPos="0.20" arrivalSpeed="12.47" duration="132.00" routeLength="773.79" waitingTime="46.00" waitingCount="1" stopTime="0.00" timeLoss="68.08" rerouteNo="0" devices="tripinfo_veh28" vType="passenger" speedFactor="0.94" vaporized=""/>
    <tripinfo id="veh146" depart="88.00" departLane="223883703_0" departPos="16.82" departSpeed="0.00" departDelay="0.40" arrival="153.00" arrivalLane="48778508#2_1" arrivalPos="0.60" arrivalSpeed="11.09" duration="65.00" routeLength="538.40" waitingTime="0.00" waitingCount="0" stopTime="0.00" timeLoss="15.22" rerouteNo="0" devices="tripinfo_veh146" vType="motorcycle" speedFactor="0.97" vaporized=""/>
    <tripinfo id="veh16" depart="10.00" departLane="-48778449#2_1" departPos="2.28" departSpeed="0.00" departDelay="0.40" arrival="155.00" arrivalLane="48736616#0_1" arrivalPos="4.31" arrivalSpeed="7.45" duration="145.00" routeLength="1203.19" waitingTime="15.00" waitingCount="2" stopTime="0.00" timeLoss="42.34" rerouteNo="0" devices="tripinfo_veh16" vType="passenger" speedFactor="0.89" vaporized=""/>
    <tripinfo id="veh150" depart="91.00" departLane="43546688#2_1" departPos="38.65" departSpeed="0.00" departDelay="1.00" arrival="155.00" arrivalLane="-40236203#1_1" arrivalPos="32.69" arrivalSpeed="12.42" duration="64.00" routeLength="409.35" waitingTime="19.00" waitingCount="1" stopTime="0.00" timeLoss="30.97" rerouteNo="0" devices="tripinfo_veh150" vType="delivery" speedFactor="0.97" vaporized=""/>
    <tripinfo id="veh118" depart="71.00" departLane="92198453#2_1" departPos="60.86" departSpeed="0.00" departDelay="0.20" arrival="156.00" arrivalLane="-859728206_0" arrivalPos="20.01" arrivalSpeed="4.22" duration="85.00" routeLength="572.15" waitingTime="0.00" waitingCount="0" stopTime="0.00" timeLoss="17.32" rerouteNo="0" devices="tripinfo_veh118" vType="passenger" speedFactor="0.89" vaporized=""/>
    <tripinfo id="veh34" depart="21.00" departLane="48778461#0_1" departPos="28.39" departSpeed="0.00" departDelay="0.60" arrival="158.00" arrivalLane="859729932_0" arrivalPos="83.63" arrivalSpeed="4.63" duration="137.00" routeLength="1160.80" waitingTime="13.00" waitingCount="1" stopTime="0.00" timeLoss="41.54" rerouteNo="0" devices="tripinfo_veh34" vType="passenger" speedFactor="1.04" vaporized=""/>
    <tripinfo id="veh129" depart="78.00" departLane="-48736632#0_1" departPos="51.40" departSpeed="0.00" departDelay="0.60" arrival="162.00" arrivalLane="48736612#6_1" arrivalPos="0.20" arrivalSpeed="10.73" duration="84.00" routeLength="621.16" waitingTime="9.00" waitingCount="1" stopTime="0.00" timeLoss="25.73" rerouteNo="0" devices="tripinfo_veh129" vType="passenger" speedFactor="0.80" vaporized=""/>
    <tripinfo id="veh165" depart="99.00" departLane="996984133_1" departPos="44.91" departSpeed="0.00" departDelay="0.00" arrival="163.00" arrivalLane="48778504_1" arrivalPos="191.60" arrivalSpeed="7.93" duration="64.00" routeLength="595.65" waitingTime="0.00" waitingCount="0" stopTime="0.00" timeLoss="10.61" rerouteNo="0" devices="tripinfo_veh165" vType="passenger" speedFactor="0.87" vaporized=""/>
    <tripinfo id="veh197" depart="119.00" departLane="67736383_1" departPos="23.00" departSpeed="0.00" departDelay="0.80" arrival="163.00" arrivalLane="48778527_1" arrivalPos="56.14" arrivalSpeed="14.31" duration="44.00" routeLength="383.10" waitingTime="0.00" waitingCount="0" stopTime="0.00" timeLoss="15.19" rerouteNo="0" devices="tripinfo_veh197" vType="passenger" speedFactor="1.10" vaporized=""/>
    <tripinfo id="veh4" depart="3.00" departLane="353939586#0_1" departPos="34.84" departSpeed="0.00" departDelay="0.60" arrival="171.00" arrivalLane="48736656#1_1" arrivalPos="41.98" arrivalSpeed="12.96" duration="168.00" routeLength="1937.34" waitingTime="9.00" waitingCount="1" stopTime="0.00" timeLoss="29.47" rerouteNo="0" devices="tripinfo_veh4" vType="passenger" speedFactor="1.02" vaporized=""/>
    <tripinfo id="veh44" depart="27.00" departLane="354259927_1" departPos="104.75" departSpeed="0.00" departDelay="0.60" arrival="172.00" arrivalLane="1136119743#1_1" arrivalPos="27.12" arrivalSpeed="5.24" duration="145.00" routeLength="1408.12" waitingTime="0.00" waitingCount="0" stopTime="0.00" timeLoss="26.44" rerouteNo="0" devices="tripinfo_veh44" vType="motorcycle" speedFactor="0.90" vaporized=""/>
    <tripinfo id="veh91" depart="55.00" departLane="48778505#1_1" departPos="20.72" departSpeed="0.00" departDelay="0.40" arrival="172.00" arrivalLane="48778431#2_1" arrivalPos="131.16" arrivalSpeed="14.48" duration="117.00" routeLength="1225.49" waitingTime="6.00" waitingCount="1" stopTime="0.00" timeLoss="33.51" rerouteNo="0" devices="tripinfo_veh91" vType="passenger" speedFactor="1.10" vaporized=""/>
    <personinfo id="ped19" depart="95.00" type="DEFAULT_PEDTYPE" speedFactor="1.05" duration="78.00" waitingTime="0.00" timeLoss="8.29" traveltime="78.00">
        <walk depart="95.00" departPos="0.00" arrival="173.00" arrivalPos="0.95" duration="78.00" routeLength="102.03" timeLoss="8.29" maxSpeed="1.46"/>
    </personinfo>
    <tripinfo id="veh103" depart="62.00" departLane="43546506#1_1" departPos="1.34" departSpeed="0.00" departDelay="0.20" arrival="176.00" arrivalLane="40236144#1_1" arrivalPos="52.82" arrivalSpeed="13.56" duration="114.00" routeLength="1208.77" waitingTime="9.00" waitingCount="1" stopTime="0.00" timeLoss="25.31" rerouteNo="0" devices="tripinfo_veh103" vType="passenger" speedFactor="1.00" vaporized=""/>
    <tripinfo id="veh70" depart="42.00" departLane="-43545645#2_1" departPos="279.45" departSpeed="0.00" departDelay="0.00" arrival="181.00" arrivalLane="383582504#0_0" arrivalPos="3.64" arrivalSpeed="5.36" duration="139.00" routeLength="1653.54" waitingTime="0.00" waitingCount="0" stopTime="0.00" timeLoss="16.61" rerouteNo="0" devices="tripinfo_veh70" vType="passenger" speedFactor="1.01" vaporized=""/>
    <tripinfo id="veh12" depart="8.00" departLane="48736624#2_1" departPos="0.13" departSpeed="0.00" departDelay="0.80" arrival="184.00" arrivalLane="-422283114_0" arrivalPos="185.51" arrivalSpeed="4.83" duration="176.00" routeLength="977.22" waitingTime="53.00" waitingCount="3" stopTime="0.00" timeLoss="82.53" rerouteNo="0" devices="tripinfo_veh12" vType="emergency" speedFactor="1.00" vaporized=""/>
    <tripinfo id="veh30" depart="18.00" departLane="-1136283379#1_1" departPos="9.73" departSpeed="0.00" departDelay="0.00" arrival="184.00" arrivalLane="48778494#1_1" arrivalPos="15.92" arrivalSpeed="4.36" duration="166.00" routeLength="702.96" waitingTime="0.00" waitingCount="0" stopTime="0.00" timeLoss="13.72" rerouteNo="0" devices="tripinfo_veh30" vType="bicycle" speedFactor="0.83" vaporized=""/>
    <tripinfo id="veh158" depart="97.00" departLane="-222609002#0_1" departPos="24.29" departSpeed="0.00" departDelay="2.20" arrival="189.00" arrivalLane="-40330557#0_1" arrivalPos="52.98" arrivalSpeed="11.33" duration="92.00" routeLength="727.57" waitingTime="3.00" waitingCount="1" stopTime="0.00" timeLoss="30.28" rerouteNo="0" devices="tripinfo_veh158" vType="passenger" speedFactor="0.90" vaporized=""/>
    <tripinfo id="veh66" depart="40.00" departLane="-48797765#2_1" departPos="6.89" departSpeed="0.00" departDelay="0.40" arrival="191.00" arrivalLane="1135856746#0_1" arrivalPos="10.90" arrivalSpeed="10.96" duration="151.00" routeLength="1161.04" waitingTime="43.00" waitingCount="1" stopTime="0.00" timeLoss="66.62" rerouteNo="0" devices="tripinfo_veh66" vType="passenger" speedFactor="1.02" vaporized=""/>
    <tripinfo id="veh23" depart="14.00" departLane="222605084#2_1" departPos="0.14" departSpeed="0.00" departDelay="0.20" arrival="192.00" arrivalLane="-40236220#0_1" arrivalPos="33.44" arrivalSpeed="15.53" duration="178.00" routeLength="1427.69" waitingTime="26.00" waitingCount="3" stopTime="0.00" timeLoss="64.20" rerouteNo="0" devices="tripinfo_veh23" vType="passenger" speedFactor="1.15" vaporized=""/>
    <tripinfo id="veh236" depart="142.00" departLane="48788485#6_1" departPos="76.10" departSpeed="0.00" departDelay="0.40" arrival="192.00" arrivalLane="1136289990_1" arrivalPos="14.40" arrivalSpeed="7.38" duration="50.00" routeLength="452.13" waitingTime="0.00" waitingCount="0" stopTime="0.00" timeLoss="12.01" rerouteNo="0" devices="tripinfo_veh236" vType="passenger" speedFactor="0.97" vaporized=""/>
    <tripinfo id="veh29" depart="18.00" departLane="-43546460#3_1" departPos="53.61" departSpeed="0.00" departDelay="0.60" arrival="195.00" arrivalLane="-43544138#0_1" arrivalPos="44.10" arrivalSpeed="13.54" duration="177.00" routeLength="2182.91" waitingTime="0.00" waitingCount="0" stopTime="0.00" timeLoss="29.13" rerouteNo="0" devices="tripinfo_veh29" vType="passenger" speedFactor="1.10" vaporized=""/>
    <tripinfo id="veh134" depart="81.00" departLane="-984508803_0" departPos="13.53" departSpeed="0.00" departDelay="0.60" arrival="195.00" arrivalLane="273834906_1" arrivalPos="76.57" arrivalSpeed="13.58" duration="114.00" routeLength="958.03" waitingTime="20.00" waitingCount="1" stopTime="0.00" timeLoss="38.45" rerouteNo="0" devices="tripinfo_veh134" vType="passenger" speedFactor="0.98" vaporized=""/>
    <tripinfo id="veh52" depart="32.00" departLane="40304754#3_1" departPos="43.04" departSpeed="0.00" departDelay="0.80" arrival="196.00" arrivalLane="1136289992_1" arrivalPos="17.60" arrivalSpeed="6.95" duration="164.00" routeLength="1736.27" waitingTime="0.00" waitingCount="0" stopTime="0.00" timeLoss="26.03" rerouteNo="0" devices="tripinfo_veh52" vType="passenger" speedFactor="0.96" vaporized=""/>
    <tripinfo id="veh21" depart="13.00" departLane="-40295499#3_1" departPos="21.15" departSpeed="0.00" departDelay="0.40" arrival="198.00" arrivalLane="48778441#0_1" arrivalPos="38.64" arrivalSpeed="13.79" duration="185.00" routeLength="2495.22" waitingTime="0.00" waitingCount="0" stopTime="0.00" timeLoss="22.17" rerouteNo="0" devices="tripinfo_veh21" vType="passenger" speedFactor="1.13" vaporized=""/>
    <tripinfo id="veh137" depart="83.00" departLane="43546688#1_1" departPos="28.29" departSpeed="0.00" departDelay="0.80" arrival="200.00" arrivalLane="-92198453#0_1" arrivalPos="257.77" arrivalSpeed="11.40" duration="117.00" routeLength="1270.17" waitingTime="0.00" waitingCount="0" stopTime="0.00" timeLoss="12.82" rerouteNo="0" devices="tripinfo_veh137" vType="passenger" speedFactor="0.90" vaporized=""/>
    <tripinfo id="veh138" depart="83.00" departLane="48778441#3_1" departPos="30.85" departSpeed="0.00" departDelay="0.20" arrival="200.00" arrivalLane="48778472_1" arrivalPos="49.54" arrivalSpeed="14.14" duration="117.00" routeLength="1252.90" waitingTime="0.00" waitingCount="0" stopTime="0.00" timeLoss="28.01" rerouteNo="0" devices="tripinfo_veh138" vType="passenger" speedFactor="1.06" vaporized=""/>
    <tripinfo id="veh27" depart="17.00" departLane="-304695350#1_1" departPos="6.51" departSpeed="0.00" departDelay="0.80" arrival="203.00" arrivalLane="-174817602_0" arrivalPos="136.56" arrivalSpeed="2.93" duration="186.00" routeLength="1394.47" waitingTime="27.00" waitingCount="1" stopTime="0.00" timeLoss="57.87" rerouteNo="0" devices="tripinfo_veh27" vType="motorcycle" speedFactor="1.02" vaporized=""/>
    <tripinfo id="veh31" depart="19.00" departLane="-48778510#0_1" departPos="1.30" departSpeed="0.00" departDelay="0.40" arrival="203.00" arrivalLane="43544001#0_1" arrivalPos="29.53" arrivalSpeed="12.31" duration="184.00" routeLength="2281.83" waitingTime="0.00" waitingCount="0" stopTime="0.00" timeLoss="20.64" rerouteNo="0" devices="tripinfo_veh31" vType="passenger" speedFactor="1.03" vaporized=""/>
    <tripinfo id="veh36" depart="22.00" departLane="43544138#2_1" departPos="0.06" departSpeed="0.00" departDelay="0.40" arrival="203.00" arrivalLane="48778508#3_1" arrivalPos="2.38" arrivalSpeed="14.66" duration="181.00" routeLength="1743.46" waitingTime="20.00" waitingCount="1" stopTime="0.00" timeLoss="60.84" rerouteNo="0" devices="tripinfo_veh36" vType="passenger" speedFactor="1.09" vaporized=""/>
    <tripinfo id="veh187" depart="113.00" departLane="-48778446#1_1" departPos="15.94" departSpeed="0.00" departDelay="0.80" arrival="203.00" arrivalLane="48778481#4_2" arrivalPos="195.74" arrivalSpeed="14.80" duration="90.00" routeLength="753.10" waitingTime="13.00" waitingCount="1" stopTime="0.00" timeLoss="37.62" rerouteNo="0" devices="tripinfo_veh187" vType="passenger" speedFactor="1.11" vaporized=""/>
    <tripinfo id="veh186" depart="112.00" departLane="-43544138#3_1" departPos="42.71" departSpeed="0.00" departDelay="0.40" arrival="204.00" arrivalLane="671642291_1" arrivalPos="61.56" arrivalSpeed="15.03" duration="92.00" routeLength="1026.64" waitingTime="0.00" waitingCount="0" stopTime="0.00" timeLoss="19.70" rerouteNo="0" devices="tripinfo_veh186" vType="passenger" speedFactor="1.09" vaporized=""/>
    <tripinfo id="veh0" depart="0.00" departLane="E17_1" departPos="52.60" departSpeed="0.00" departDelay="0.00" arrival="206.00" arrivalLane="-1205541342_1" arrivalPos="22.37" arrivalSpeed="5.29" duration="206.00" routeLength="2187.87" waitingTime="0.00" waitingCount="0" stopTime="0.00" timeLoss="33.31" rerouteNo="0" devices="tripinfo_veh0" vType="motorcycle" speedFactor="0.98" vaporized=""/>
    <tripinfo id="veh269" depart="162.00" departLane="143207979#8_1" departPos="3.46" departSpeed="0.00" departDelay="0.60" arrival="206.00" arrivalLane="48778512_1" arrivalPos="67.72" arrivalSpeed="7.88" duration="44.00" routeLength="366.05" waitingTime="0.00" waitingCount="0" stopTime="0.00" timeLoss="11.18" rerouteNo="0" devices="tripinfo_veh269" vType="passenger" speedFactor="1.00" vaporized=""/>
    <tripinfo id="veh151" depart="91.00" departLane="40334244#3_1" departPos="92.59" departSpeed="0.00" departDelay="0.40" arrival="208.00" arrivalLane="48736665_1" arrivalPos="14.66" arrivalSpeed="10.23" duration="117.00" routeLength="987.52" waitingTime="12.00" waitingCount="1" stopTime="0.00" timeLoss="33.28" rerouteNo="0" devices="tripinfo_veh151" vType="passenger" speedFactor="0.91" vaporized=""/>
    <tripinfo id="veh90" depart="54.00" departLane="48736638#0_1" departPos="11.38" departSpeed="0.00" departDelay="0.00" arrival="209.00" arrivalLane="48736666#1_1" arrivalPos="12.12" arrivalSpeed="9.75" duration="155.00" routeLength="1183.51" waitingTime="45.00" waitingCount="2" stopTime="0.00" timeLoss="67.96" rerouteNo="0" devices="tripinfo_veh90" vType="delivery" speedFactor="1.01" vaporized=""/>
    <tripinfo id="veh153" depart="92.00" departLane="1232511776#1_1" departPos="20.65" departSpeed="0.00" departDelay="0.20" arrival="209.00" arrivalLane="-43546460#11_1" arrivalPos="10.09" arrivalSpeed="8.78" duration="117.00" routeLength="1623.20" waitingTime="0.00" waitingCount="0" stopTime="0.00" timeLoss="15.48" rerouteNo="0" devices="tripinfo_veh153" vType="passenger" speedFactor="1.18" vaporized=""/>
    <tripinfo id="veh8" depart="5.00" departLane="222605085#0_1" departPos="34.91" departSpeed="0.00" departDelay="0.20" arrival="211.00" arrivalLane="-383582506_0" arrivalPos="44.83" arrivalSpeed="4.53" duration="206.00" routeLength="1663.33" waitingTime="35.00" waitingCount="1" stopTime="0.00" timeLoss="60.30" rerouteNo="0" devices="tripinfo_veh8" vType="passenger" speedFactor="0.90" vaporized=""/>
    <tripinfo id="veh154" depart="93.00" departLane="-945794107_1" departPos="88.97" departSpeed="0.00" departDelay="0.60" arrival="211.00" arrivalLane="92198452#2_1" arrivalPos="54.26" arrivalSpeed="12.99" duration="118.00" routeLength="899.89" waitingTime="0.00" waitingCount="0" stopTime="0.00" timeLoss="18.19" rerouteNo="0" devices="tripinfo_veh154" vType="delivery" speedFactor="0.99" vaporized=""/>
    <tripinfo id="veh173" depart="104.00" departLane="859737784_1" departPos="42.79" departSpeed="0.00" departDelay="0.20" arrival="213.00" arrivalLane="647262856_1" arrivalPos="411.78" arrivalSpeed="13.88" duration="109.00" routeLength="1251.75" waitingTime="0.00" waitingCount="0" stopTime="0.00" timeLoss="18.41" rerouteNo="0" devices="tripinfo_veh173" vType="delivery" speedFactor="1.03" vaporized=""/>
    <tripinfo id="veh238" depart="143.00" departLane="-1136289992_1" departPos="6.80" departSpeed="0.00" departDelay="0.20" arrival="214.00" arrivalLane="-222608881#0_1" arrivalPos="169.24" arrivalSpeed="14.64" duration="71.00" routeLength="762.28" waitingTime="0.00" waitingCount="0" stopTime="0.00" timeLoss="18.41" rerouteNo="0" devices="tripinfo_veh238" vType="passenger" speedFactor="1.14" vaporized=""/>
    <tripinfo id="veh61" depart="37.00" departLane="-40265774#1_1" departPos="24.39" departSpeed="0.00" departDelay="0.40" arrival="215.00" arrivalLane="-383582499#1_1" arrivalPos="69.95" arrivalSpeed="15.32" duration="178.00" routeLength="2242.92" waitingTime="1.00" waitingCount="1" stopTime="0.00" timeLoss="29.29" rerouteNo="0" devices="tripinfo_veh61" vType="passenger" speedFactor="1.12" vaporized=""/>
    <tripinfo id="veh177" depart="107.00" departLane="-1250915720#5_1" departPos="1.19" departSpeed="0.00" departDelay="0.80" arrival="215.00" arrivalLane="-33909936#0_1" arrivalPos="22.20" arrivalSpeed="14.97" duration="108.00" routeLength="928.50" waitingTime="0.00" waitingCount="0" stopTime="0.00" timeLoss="24.09" rerouteNo="0" devices="tripinfo_veh177" vType="motorcycle" speedFactor="1.10" vaporized=""/>
    <tripinfo id="veh35" depart="21.00" departLane="40236153#0_1" departPos="41.15" departSpeed="0.00" departDelay="0.00" arrival="216.00" arrivalLane="-25379984#2_1" arrivalPos="135.87" arrivalSpeed="13.59" duration="195.00" routeLength="1840.96" waitingTime="19.00" waitingCount="2" stopTime="0.00" timeLoss="58.22" rerouteNo="0" devices="tripinfo_veh35" vType="emergency" speedFactor="1.00" vaporized=""/>
    <tripinfo id="veh99" depart="60.00" departLane="-353939570#5_1" departPos="65.88" departSpeed="0.00" departDelay="0.60" arrival="217.00" arrivalLane="-92198452#1_1" arrivalPos="116.26" arrivalSpeed="13.36" duration="157.00" routeLength="1961.27" waitingTime="0.00" waitingCount="0" stopTime="0.00" timeLoss="17.21" rerouteNo="0" devices="tripinfo_veh99" vType="passenger" speedFactor="1.03" vaporized=""/>
    <tripinfo id="veh133" depart="80.00" departLane="-671606411_1" departPos="30.90" departSpeed="0.00" departDelay="0.20" arrival="217.00" arrivalLane="648182739#2_1" arrivalPos="280.22" arrivalSpeed="15.06" duration="137.00" routeLength="1783.42" waitingTime="3.00" waitingCount="1" stopTime="0.00" timeLoss="22.28" rerouteNo="0" devices="tripinfo_veh133" vType="passenger" speedFactor="1.13" vaporized=""/>
    <tripinfo id="veh294" depart="177.00" departLane="48778526_1" departPos="73.37" departSpeed="0.00" departDelay="0.60" arrival="217.00" arrivalLane="43544046_1" arrivalPos="104.15" arrivalSpeed="13.66" duration="40.00" routeLength="361.40" waitingTime="0.00" waitingCount="0" stopTime="0.00" timeLoss="12.25" rerouteNo="0" devices="tripinfo_veh294" vType="delivery" speedFactor="1.04" vaporized=""/>
    <tripinfo id="veh183" depart="110.00" departLane="43573547#5_1" departPos="15.71" departSpeed="0.00" departDelay="0.20" arrival="219.00" arrivalLane="-43546688#1_1" arrivalPos="71.52" arrivalSpeed="11.91" duration="109.00" routeLength="1100.72" waitingTime="0.00" waitingCount="0" stopTime="0.00" timeLoss="17.29" rerouteNo="0" devices="tripinfo_veh183" vType="passenger" speedFactor="0.91" vaporized=""/>
    <tripinfo id="veh107" depart="65.00" departLane="-859732803#1_0" departPos="23.82" departSpeed="0.00" departDelay="0.80" arrival="220.00" arrivalLane="-33909936#3_1" arrivalPos="25.37" arrivalSpeed="11.04" duration="155.00" routeLength="1074.00" waitingTime="14.00" waitingCount="2" stopTime="0.00" timeLoss="52.91" rerouteNo="0" devices="tripinfo_veh107" vType="motorcycle" speedFactor="0.84" vaporized=""/>
    <tripinfo id="veh100" depart="60.00" departLane="-222605084#7_1" departPos="1.07" departSpeed="0.00" departDelay="0.00" arrival="227.00" arrivalLane="-859732802#0_0" arrivalPos="5.60" arrivalSpeed="5.21" duration="167.00" routeLength="1120.65" waitingTime="23.00" waitingCount="1" stopTime="0.00" timeLoss="53.20" rerouteNo="0" devices="tripinfo_veh100" vType="passenger" speedFactor="1.02" vaporized=""/>
    <tripinfo id="veh53" depart="32.00" departLane="-43547017#4_1" departPos="4.83" departSpeed="0.00" departDelay="0.20" arrival="229.00" arrivalLane="-40330575#4_1" arrivalPos="66.51" arrivalSpeed="11.96" duration="197.00" routeLength="2089.38" waitingTime="2.00" waitingCount="1" stopTime="0.00" timeLoss="25.97" rerouteNo="0" devices="tripinfo_veh53" vType="passenger" speedFactor="0.91" vaporized=""/>
    <tripinfo id="veh37" depart="23.00" departLane="-48778508#0_1" departPos="4.82" departSpeed="0.00" departDelay="0.80" arrival="230.00" arrivalLane="48797773_1" arrivalPos="23.80" arrivalSpeed="12.85" duration="207.00" routeLength="2045.12" waitingTime="10.00" waitingCount="1" stopTime="0.00" timeLoss="46.30" rerouteNo="0" devices="tripinfo_veh37" vType="passenger" speedFactor="0.95" vaporized=""/>
    <tripinfo id="veh181" depart="109.00" departLane="-43544179#10_1" departPos="5.27" departSpeed="0.00" departDelay="0.40" arrival="232.00" arrivalLane="48778524#2_1" arrivalPos="30.10" arrivalSpeed="5.84" duration="123.00" routeLength="670.11" waitingTime="0.00" waitingCount="0" stopTime="0.00" timeLoss="10.07" rerouteNo="0" devices="tripinfo_veh181" vType="bicycle" speedFactor="1.07" vaporized=""/>