<?xml version="1.0" encoding="UTF-8"?>

<!-- generated on 2025-06-12 12:33:30 by Eclipse SUMO sumo Version 1.22.0
<sumoConfiguration xmlns:xsi="http://www.w3.org/2001/XMLSchema-instance" xsi:noNamespaceSchemaLocation="http://sumo.dlr.de/xsd/sumoConfiguration.xsd">

    <input>
        <net-file value="osm.net.xml"/>
        <route-files value="full.rou.xml, ped.rou.xml, truck.rou.xml"/>
        <additional-files value="osm.poly.xml, vtypes.xml"/>
    </input>

    <output>
        <summary-output value="summary.xml"/>
        <tripinfo-output value="E:\licenta\oras-mediu\2025-06-05-11-45-23\baseline_outputs\tripinfo_baseline_ep18.xml"/>
    </output>

    <processing>
        <ignore-route-errors value="true"/>
        <tls.actuated.jam-threshold value="30"/>
    </processing>

    <routing>
        <device.rerouting.adaptation-steps value="18"/>
        <device.rerouting.adaptation-interval value="10"/>
    </routing>

    <report>
        <verbose value="true"/>
        <duration-log.statistics value="true"/>
        <no-step-log value="true"/>
    </report>

    <traci_server>
        <remote-port value="64541"/>
    </traci_server>

    <gui_only>
        <gui-settings-file value="osm.view.xml"/>
    </gui_only>

</sumoConfiguration>
-->

<tripinfos xmlns:xsi="http://www.w3.org/2001/XMLSchema-instance" xsi:noNamespaceSchemaLocation="http://sumo.dlr.de/xsd/tripinfo_file.xsd">
    <tripinfo id="veh23" depart="15.00" departLane="43544001#0_1" departPos="27.61" departSpeed="0.00" departDelay="0.74" arrival="65.00" arrivalLane="-43544624#1_1" arrivalPos="93.66" arrivalSpeed="12.97" duration="50.00" routeLength="570.52" waitingTime="0.00" waitingCount="0" stopTime="0.00" timeLoss="6.88" rerouteNo="0" devices="tripinfo_veh23" vType="passenger" speedFactor="0.99" vaporized=""/>
    <tripinfo id="veh8" depart="5.00" departLane="-48778499#0_1" departPos="20.02" departSpeed="0.00" departDelay="0.04" arrival="80.00" arrivalLane="1158942155_1" arrivalPos="54.59" arrivalSpeed="11.58" duration="75.00" routeLength="410.01" waitingTime="22.00" waitingCount="1" stopTime="0.00" timeLoss="38.53" rerouteNo="0" devices="tripinfo_veh8" vType="passenger" speedFactor="0.90" vaporized=""/>
    <tripinfo id="veh0" depart="0.00" departLane="-859734514#1_0" departPos="50.35" departSpeed="0.00" departDelay="0.00" arrival="98.00" arrivalLane="-40330571#1_1" arrivalPos="2.27" arrivalSpeed="11.46" duration="98.00" routeLength="980.38" waitingTime="0.00" waitingCount="0" stopTime="0.00" timeLoss="17.97" rerouteNo="0" devices="tripinfo_veh0" vType="motorcycle" speedFactor="0.98" vaporized=""/>
    <tripinfo id="veh11" depart="7.00" departLane="40305706#1_1" departPos="2.67" departSpeed="0.00" departDelay="0.18" arrival="100.00" arrivalLane="-48778475#0_1" arrivalPos="61.83" arrivalSpeed="12.41" duration="93.00" routeLength="746.46" waitingTime="0.00" waitingCount="0" stopTime="0.00" timeLoss="32.89" rerouteNo="0" devices="tripinfo_veh11" vType="delivery" speedFactor="0.97" vaporized=""/>
    <tripinfo id="veh16" depart="10.00" departLane="-1107366376_0" departPos="43.42" departSpeed="0.00" departDelay="0.08" arrival="105.00" arrivalLane="859728207_0" arrivalPos="18.62" arrivalSpeed="4.63" duration="95.00" routeLength="717.89" waitingTime="0.00" waitingCount="0" stopTime="0.00" timeLoss="14.47" rerouteNo="0" devices="tripinfo_veh16" vType="passenger" speedFactor="1.01" vaporized=""/>
    <tripinfo id="veh35" depart="22.00" departLane="-945793490#4_1" departPos="45.24" departSpeed="0.00" departDelay="0.30" arrival="111.00" arrivalLane="40330592_1" arrivalPos="133.23" arrivalSpeed="11.35" duration="89.00" routeLength="560.08" waitingTime="0.00" waitingCount="0" stopTime="0.00" timeLoss="16.50" rerouteNo="0" devices="tripinfo_veh35" vType="passenger" speedFactor="0.88" vaporized=""/>
    <tripinfo id="veh42" depart="27.00" departLane="43546449#1_1" departPos="14.35" departSpeed="0.00" departDelay="0.96" arrival="111.00" arrivalLane="-256684296_0" arrivalPos="80.07" arrivalSpeed="2.48" duration="84.00" routeLength="459.49" waitingTime="0.00" waitingCount="0" stopTime="0.00" timeLoss="18.19" rerouteNo="0" devices="tripinfo_veh42" vType="motorcycle" speedFactor="0.90" vaporized=""/>
    <tripinfo id="veh81" depart="51.00" departLane="-647621857_0" departPos="36.21" departSpeed="0.00" departDelay="0.78" arrival="118.00" arrivalLane="48736641_1" arrivalPos="16.88" arrivalSpeed="11.17" duration="67.00" routeLength="708.70" waitingTime="0.00" waitingCount="0" stopTime="0.00" timeLoss="14.86" rerouteNo="0" devices="tripinfo_veh81" vType="passenger" speedFactor="1.08" vaporized=""/>
    <tripinfo id="veh43" depart="27.00" departLane="-859732801#1_1" departPos="16.62" departSpeed="0.00" departDelay="0.34" arrival="125.00" arrivalLane="33909936#5_1" arrivalPos="58.06" arrivalSpeed="13.42" duration="98.00" routeLength="1046.90" waitingTime="0.00" waitingCount="0" stopTime="0.00" timeLoss="17.09" rerouteNo="0" devices="tripinfo_veh43" vType="delivery" speedFactor="0.98" vaporized=""/>
    <tripinfo id="veh24" depart="15.00" departLane="-984513295_0" departPos="45.18" departSpeed="0.00" departDelay="0.12" arrival="128.00" arrivalLane="-859738688_0" arrivalPos="223.29" arrivalSpeed="4.14" duration="113.00" routeLength="799.10" waitingTime="6.00" waitingCount="1" stopTime="0.00" timeLoss="26.21" rerouteNo="0" devices="tripinfo_veh24" vType="passenger" speedFactor="0.97" vaporized=""/>
    <tripinfo id="veh18" depart="12.00" departLane="-48736647#1_1" departPos="11.33" departSpeed="0.00" departDelay="0.84" arrival="134.00" arrivalLane="48797769_1" arrivalPos="15.35" arrivalSpeed="13.80" duration="122.00" routeLength="1303.30" waitingTime="1.00" waitingCount="1" stopTime="0.00" timeLoss="26.15" rerouteNo="0" devices="tripinfo_veh18" vType="passenger" speedFactor="1.03" vaporized=""/>
    <tripinfo id="veh116" depart="72.00" departLane="-40304754#4_1" departPos="86.78" departSpeed="0.00" departDelay="0.08" arrival="135.00" arrivalLane="-43546688#1_1" arrivalPos="71.52" arrivalSpeed="12.04" duration="63.00" routeLength="563.25" waitingTime="0.00" waitingCount="0" stopTime="0.00" timeLoss="13.24" rerouteNo="0" devices="tripinfo_veh116" vType="passenger" speedFactor="0.89" vaporized=""/>
    <tripinfo id="veh47" depart="30.00" departLane="1135856746#1_1" departPos="110.17" departSpeed="0.00" departDelay="0.86" arrival="139.00" arrivalLane="-48797770_1" arrivalPos="20.27" arrivalSpeed="11.33" duration="109.00" routeLength="1322.93" waitingTime="0.00" waitingCount="0" stopTime="0.00" timeLoss="20.50" rerouteNo="0" devices="tripinfo_veh47" vType="passenger" speedFactor="1.12" vaporized=""/>
    <tripinfo id="veh7" depart="5.00" departLane="-48736614#2_1" departPos="27.82" departSpeed="0.00" departDelay="0.66" arrival="141.00" arrivalLane="40299264#2_1" arrivalPos="39.63" arrivalSpeed="14.22" duration="136.00" routeLength="1478.18" waitingTime="0.00" waitingCount="0" stopTime="0.00" timeLoss="35.51" rerouteNo="0" devices="tripinfo_veh7" vType="passenger" speedFactor="1.12" vaporized=""/>
    <tripinfo id="veh36" depart="23.00" departLane="33909936#5_1" departPos="26.46" departSpeed="0.00" departDelay="0.68" arrival="141.00" arrivalLane="-43544138#7_1" arrivalPos="43.93" arrivalSpeed="13.67" duration="118.00" routeLength="1349.10" waitingTime="7.00" waitingCount="1" stopTime="0.00" timeLoss="24.97" rerouteNo="0" devices="tripinfo_veh36" vType="passenger" speedFactor="1.06" vaporized=""/>
    <tripinfo id="veh15" depart="10.00" departLane="-43544001#7_1" departPos="1.48" departSpeed="0.00" departDelay="0.70" arrival="156.00" arrivalLane="996489799#0_0" arrivalPos="0.20" arrivalSpeed="4.07" duration="146.00" routeLength="1497.43" waitingTime="0.00" waitingCount="0" stopTime="0.00" timeLoss="20.58" rerouteNo="0" devices="tripinfo_veh15" vType="passenger" speedFactor="0.89" vaporized=""/>
    <tripinfo id="veh101" depart="63.00" departLane="43573547#2_1" departPos="8.94" departSpeed="0.00" departDelay="0.38" arrival="156.00" arrivalLane="258551279_0" arrivalPos="179.06" arrivalSpeed="5.35" duration="93.00" routeLength="895.53" waitingTime="0.00" waitingCount="0" stopTime="0.00" timeLoss="14.85" rerouteNo="0" devices="tripinfo_veh101" vType="passenger" speedFactor="1.12" vaporized=""/>
    <tripinfo id="veh37" depart="23.00" departLane="-92198451#0_1" departPos="48.41" departSpeed="0.00" departDelay="0.06" arrival="166.00" arrivalLane="-143207979#1_1" arrivalPos="43.59" arrivalSpeed="15.05" duration="143.00" routeLength="1928.97" waitingTime="0.00" waitingCount="0" stopTime="0.00" timeLoss="21.46" rerouteNo="0" devices="tripinfo_veh37" vType="passenger" speedFactor="1.17" vaporized=""/>
    <tripinfo id="veh10" depart="7.00" departLane="-354259933#3_1" departPos="41.24" departSpeed="0.00" departDelay="0.80" arrival="168.00" arrivalLane="48788485#4_1" arrivalPos="201.27" arrivalSpeed="13.67" duration="161.00" routeLength="1810.79" waitingTime="1.00" waitingCount="1" stopTime="0.00" timeLoss="31.58" rerouteNo="0" devices="tripinfo_veh10" vType="passenger" speedFactor="1.04" vaporized=""/>
    <tripinfo id="veh88" depart="55.00" departLane="43544138#7_1" departPos="31.39" departSpeed="0.00" departDelay="0.44" arrival="170.00" arrivalLane="43573547#1_1" arrivalPos="25.37" arrivalSpeed="14.19" duration="115.00" routeLength="1396.71" waitingTime="0.00" waitingCount="0" stopTime="0.00" timeLoss="19.40" rerouteNo="0" devices="tripinfo_veh88" vType="passenger" speedFactor="1.10" vaporized=""/>
    <tripinfo id="veh17" depart="11.00" departLane="33913538#1_1" departPos="6.73" departSpeed="0.00" departDelay="0.46" arrival="178.00" arrivalLane="48736667_1" arrivalPos="133.52" arrivalSpeed="11.58" duration="167.00" routeLength="1578.72" waitingTime="16.00" waitingCount="1" stopTime="0.00" timeLoss="34.97" rerouteNo="0" devices="tripinfo_veh17" vType="passenger" speedFactor="0.87" vaporized=""/>
    <tripinfo id="veh187" depart="116.00" departLane="-48778514#2_1" departPos="90.07" departSpeed="0.00" departDelay="0.06" arrival="179.00" arrivalLane="1136289990_1" arrivalPos="14.40" arrivalSpeed="9.48" duration="63.00" routeLength="604.96" waitingTime="4.00" waitingCount="1" stopTime="0.00" timeLoss="18.80" rerouteNo="0" devices="tripinfo_veh187" vType="motorcycle" speedFactor="1.14" vaporized=""/>
    <tripinfo id="veh108" depart="67.00" departLane="-984521611#1_0" departPos="13.75" departSpeed="0.00" departDelay="0.04" arrival="184.00" arrivalLane="996489799#0_0" arrivalPos="0.20" arrivalSpeed="5.55" duration="117.00" routeLength="1272.60" waitingTime="0.00" waitingCount="0" stopTime="0.00" timeLoss="17.40" rerouteNo="0" devices="tripinfo_veh108" vType="emergency" speedFactor="1.00" vaporized=""/>
    <tripinfo id="veh2" depart="2.00" departLane="-48778511_1" departPos="44.21" departSpeed="0.00" departDelay="0.76" arrival="185.00" arrivalLane="994065252_0" arrivalPos="159.63" arrivalSpeed="5.03" duration="183.00" routeLength="2099.12" waitingTime="0.00" waitingCount="0" stopTime="0.00" timeLoss="22.86" rerouteNo="0" devices="tripinfo_veh2" vType="passenger" speedFactor="1.08" vaporized=""/>
    <tripinfo id="veh197" depart="123.00" departLane="48736640#0_1" departPos="18.92" departSpeed="0.00" departDelay="0.86" arrival="186.00" arrivalLane="48736639#1_1" arrivalPos="23.89" arrivalSpeed="12.89" duration="63.00" routeLength="690.88" waitingTime="0.00" waitingCount="0" stopTime="0.00" timeLoss="12.00" rerouteNo="0" devices="tripinfo_veh197" vType="motorcycle" speedFactor="1.04" vaporized=""/>
    <tripinfo id="veh13" depart="9.00" departLane="-48736646#1_1" departPos="138.79" departSpeed="0.00" departDelay="0.94" arrival="188.00" arrivalLane="48736666#2_1" arrivalPos="56.15" arrivalSpeed="14.11" duration="179.00" routeLength="1813.76" waitingTime="26.00" waitingCount="1" stopTime="0.00" timeLoss="47.79" rerouteNo="0" devices="tripinfo_veh13" vType="passenger" speedFactor="1.02" vaporized=""/>
    <tripinfo id="veh87" depart="54.00" departLane="-40330557#0_1" departPos="3.52" departSpeed="0.00" departDelay="0.06" arrival="188.00" arrivalLane="353939570#5_1" arrivalPos="72.46" arrivalSpeed="13.30" duration="134.00" routeLength="1224.75" waitingTime="23.00" waitingCount="1" stopTime="0.00" timeLoss="42.49" rerouteNo="0" devices="tripinfo_veh87" vType="delivery" speedFactor="1.01" vaporized=""/>
    <tripinfo id="veh63" depart="40.00" departLane="-43545645#1_1" departPos="1.31" departSpeed="0.00" departDelay="0.94" arrival="192.00" arrivalLane="48778476_1" arrivalPos="90.71" arrivalSpeed="14.15" duration="152.00" routeLength="1761.46" waitingTime="0.00" waitingCount="0" stopTime="0.00" timeLoss="29.79" rerouteNo="0" devices="tripinfo_veh63" vType="passenger" speedFactor="1.08" vaporized=""/>
    <tripinfo id="veh66" depart="41.00" departLane="-40265774#1_2" departPos="22.58" departSpeed="0.00" departDelay="0.08" arrival="192.00" arrivalLane="353939570#7_2" arrivalPos="11.98" arrivalSpeed="9.92" duration="151.00" routeLength="1495.07" waitingTime="8.00" waitingCount="1" stopTime="0.00" timeLoss="38.41" rerouteNo="0" devices="tripinfo_veh66" vType="passenger" speedFactor="1.01" vaporized=""/>
    <tripinfo id="veh59" depart="37.00" departLane="-43573547#2_1" departPos="18.16" departSpeed="0.00" departDelay="0.42" arrival="194.00" arrivalLane="-48797772_1" arrivalPos="103.62" arrivalSpeed="12.64" duration="157.00" routeLength="1630.75" waitingTime="0.00" waitingCount="0" stopTime="0.00" timeLoss="24.58" rerouteNo="0" devices="tripinfo_veh59" vType="passenger" speedFactor="0.92" vaporized=""/>
    <tripinfo id="veh170" depart="106.00" departLane="48778431#2_2" departPos="92.39" departSpeed="0.00" departDelay="0.60" arrival="197.00" arrivalLane="43544197#4_1" arrivalPos="41.55" arrivalSpeed="13.70" duration="91.00" routeLength="1018.61" waitingTime="0.00" waitingCount="0" stopTime="0.00" timeLoss="17.36" rerouteNo="0" devices="tripinfo_veh170" vType="passenger" speedFactor="1.04" vaporized=""/>
    <tripinfo id="veh46" depart="29.00" departLane="143207982#2_1" departPos="0.12" departSpeed="0.00" departDelay="0.48" arrival="198.00" arrivalLane="40299276#1_1" arrivalPos="70.79" arrivalSpeed="12.65" duration="169.00" routeLength="1273.19" waitingTime="38.00" waitingCount="2" stopTime="0.00" timeLoss="71.44" rerouteNo="0" devices="tripinfo_veh46" vType="passenger" speedFactor="1.00" vaporized=""/>
    <tripinfo id="veh127" depart="79.00" departLane="996489799#2_0" departPos="11.09" departSpeed="0.00" departDelay="0.26" arrival="202.00" arrivalLane="222609002#4_1" arrivalPos="52.31" arrivalSpeed="13.84" duration="123.00" routeLength="1337.33" waitingTime="0.00" waitingCount="0" stopTime="0.00" timeLoss="17.74" rerouteNo="0" devices="tripinfo_veh127" vType="delivery" speedFactor="1.00" vaporized=""/>
    <tripinfo id="veh181" depart="113.00" departLane="-1205541343#1_1" departPos="6.64" departSpeed="0.00" departDelay="0.78" arrival="204.00" arrivalLane="-43546460#4_1" arrivalPos="197.29" arrivalSpeed="13.87" duration="91.00" routeLength="980.15" waitingTime="6.00" waitingCount="1" stopTime="0.00" timeLoss="18.36" rerouteNo="0" devices="tripinfo_veh181" vType="passenger" speedFactor="1.09" vaporized=""/>
    <tripinfo id="veh33" depart="21.00" departLane="383582503_0" departPos="61.87" departSpeed="0.00" departDelay="0.54" arrival="205.00" arrivalLane="-250295380#1_1" arrivalPos="92.88" arrivalSpeed="14.06" duration="184.00" routeLength="1318.31" waitingTime="70.00" waitingCount="2" stopTime="0.00" timeLoss="89.89" rerouteNo="0" devices="tripinfo_veh33" vType="passenger" speedFactor="1.09" vaporized=""/>
    <tripinfo id="veh34" depart="22.00" departLane="-996489799#1_0" departPos="5.52" departSpeed="0.00" departDelay="0.92" arrival="206.00" arrivalLane="-43546460#9_1" arrivalPos="51.84" arrivalSpeed="12.56" duration="184.00" routeLength="1517.74" waitingTime="31.00" waitingCount="1" stopTime="0.00" timeLoss="57.13" rerouteNo="0" devices="tripinfo_veh34" vType="passenger" speedFactor="0.95" vaporized=""/>
    <tripinfo id="veh119" depart="74.00" departLane="43546343#2_1" departPos="31.82" departSpeed="0.00" departDelay="0.22" arrival="209.00" arrivalLane="48778480#5_1" arrivalPos="195.85" arrivalSpeed="12.78" duration="135.00" routeLength="1367.89" waitingTime="0.00" waitingCount="0" stopTime="0.00" timeLoss="24.12" rerouteNo="0" devices="tripinfo_veh119" vType="passenger" speedFactor="0.94" vaporized=""/>
    <tripinfo id="veh12" depart="8.00" departLane="43544588#0_1" departPos="107.53" departSpeed="0.00" departDelay="0.56" arrival="210.00" arrivalLane="40345956#1_1" arrivalPos="78.47" arrivalSpeed="13.13" duration="202.00" routeLength="2177.92" waitingTime="1.00" waitingCount="1" stopTime="0.00" timeLoss="38.55" rerouteNo="0" devices="tripinfo_veh12" vType="emergency" speedFactor="1.00" vaporized=""/>
    <tripinfo id="veh82" depart="51.00" departLane="223942064#1_0" departPos="0.77" departSpeed="0.00" departDelay="0.16" arrival="212.00" arrivalLane="-383582499#2_1" arrivalPos="51.55" arrivalSpeed="13.89" duration="161.00" routeLength="1837.62" waitingTime="7.00" waitingCount="1" stopTime="0.00" timeLoss="30.46" rerouteNo="0" devices="tripinfo_veh82" vType="passenger" speedFactor="1.03" vaporized=""/>
    <personinfo id="ped13" depart="65.00" type="DEFAULT_PEDTYPE" speedFactor="0.99" duration="148.00" waitingTime="0.00" timeLoss="27.08" traveltime="148.00">
        <walk depart="65.00" departPos="0.00" arrival="213.00" arrivalPos="21.13" duration="148.00" routeLength="166.43" timeLoss="27.08" maxSpeed="1.38"/>
    </personinfo>
    <tripinfo id="veh22" depart="14.00" departLane="40305706#2_1" departPos="35.16" departSpeed="0.00" departDelay="0.36" arrival="213.00" arrivalLane="48778497_1" arrivalPos="231.08" arrivalSpeed="15.04" duration="199.00" routeLength="1366.55" waitingTime="4.00" waitingCount="1" stopTime="0.00" timeLoss="105.62" rerouteNo="0" devices="tripinfo_veh22" vType="passenger" speedFactor="1.12" vaporized=""/>
    <tripinfo id="veh167" depart="104.00" departLane="1136301812#1_1" departPos="6.51" departSpeed="0.00" departDelay="0.46" arrival="213.00" arrivalLane="40266907#1_1" arrivalPos="33.57" arrivalSpeed="11.14" duration="109.00" routeLength="945.99" waitingTime="0.00" waitingCount="0" stopTime="0.00" timeLoss="17.70" rerouteNo="0" devices="tripinfo_veh167" vType="passenger" speedFactor="0.80" vaporized=""/>
    <tripinfo id="veh65" depart="41.00" departLane="174817602_0" departPos="108.57" departSpeed="0.00" departDelay="0.70" arrival="214.00" arrivalLane="-48778502#0_1" arrivalPos="26.17" arrivalSpeed="13.17" duration="173.00" routeLength="2090.76" waitingTime="0.00" waitingCount="0" stopTime="0.00" timeLoss="15.75" rerouteNo="0" devices="tripinfo_veh65" vType="passenger" speedFactor="0.98" vaporized=""/>
    <tripinfo id="veh122" depart="76.00" departLane="-92198452#1_1" departPos="27.82" departSpeed="0.00" departDelay="0.36" arrival="216.00" arrivalLane="-1136284448_1" arrivalPos="34.50" arrivalSpeed="9.59" duration="140.00" routeLength="1223.55" waitingTime="3.00" waitingCount="1" stopTime="0.00" timeLoss="35.08" rerouteNo="0" devices="tripinfo_veh122" vType="passenger" speedFactor="1.18" vaporized=""/>
    <tripinfo id="veh231" depart="144.00" departLane="43544184#0_1" departPos="6.29" departSpeed="0.00" departDelay="0.78" arrival="216.00" arrivalLane="647347140#1_1" arrivalPos="28.09" arrivalSpeed="13.86" duration="72.00" routeLength="845.03" waitingTime="0.00" waitingCount="0" stopTime="0.00" timeLoss="16.42" rerouteNo="0" devices="tripinfo_veh231" vType="passenger" speedFactor="1.14" vaporized=""/>
    <tripinfo id="veh177" depart="110.00" departLane="48736610#1_1" departPos="1.17" departSpeed="0.00" departDelay="0.26" arrival="217.00" arrivalLane="-174817602_0" arrivalPos="136.56" arrivalSpeed="5.14" duration="107.00" routeLength="890.75" waitingTime="0.00" waitingCount="0" stopTime="0.00" timeLoss="23.76" rerouteNo="0" devices="tripinfo_veh177" vType="motorcycle" speedFactor="1.00" vaporized=""/>
    <tripinfo id="veh126" depart="79.00" departLane="48736639#0_1" departPos="19.15" departSpeed="0.00" departDelay="0.88" arrival="219.00" arrivalLane="40236164_1" arrivalPos="161.97" arrivalSpeed="11.78" duration="140.00" routeLength="1389.74" waitingTime="2.00" waitingCount="1" stopTime="0.00" timeLoss="24.60" rerouteNo="0" devices="tripinfo_veh126" vType="passenger" speedFactor="0.91" vaporized=""/>
    <tripinfo id="veh242" depart="151.00" departLane="1135854143_1" departPos="21.81" departSpeed="0.00" departDelay="0.96" arrival="219.00" arrivalLane="48778443#0_1" arrivalPos="2.86" arrivalSpeed="5.98" duration="68.00" routeLength="464.16" waitingTime="10.00" waitingCount="1" stopTime="0.00" timeLoss="29.03" rerouteNo="0" devices="tripinfo_veh242" vType="emergency" speedFactor="1.00" vaporized=""/>
    <tripinfo id="veh60" depart="38.00" departLane="-1136289989_1" departPos="0.19" departSpeed="0.00" departDelay="0.80" arrival="221.00" arrivalLane="-859728208#3_0" arrivalPos="6.50" arrivalSpeed="5.67" duration="183.00" routeLength="2202.76" waitingTime="2.00" waitingCount="1" stopTime="0.00" timeLoss="30.23" rerouteNo="0" devices="tripinfo_veh60" vType="passenger" speedFactor="1.09" vaporized=""/>
    <tripinfo id="veh164" depart="102.00" departLane="-40236144#3_1" departPos="31.30" departSpeed="0.00" departDelay="0.32" arrival="221.00" arrivalLane="-222609002#4_1" arrivalPos="52.31" arrivalSpeed="14.67" duration="119.00" routeLength="1465.74" waitingTime="0.00" waitingCount="0" stopTime="0.00" timeLoss="17.14" rerouteNo="0" devices="tripinfo_veh164" vType="passenger" speedFactor="1.07" vaporized=""/>
    <tripinfo id="veh208" depart="129.00" departLane="-859729932_0" departPos="60.66" departSpeed="0.00" departDelay="0.04" arrival="221.00" arrivalLane="43546519#2_1" arrivalPos="8.00" arrivalSpeed="12.53" duration="92.00" routeLength="942.98" waitingTime="0.00" waitingCount="0" stopTime="0.00" timeLoss="15.99" rerouteNo="0" devices="tripinfo_veh208" vType="passenger" speedFactor="1.00" vaporized=""/>
    <tripinfo id="veh229" depart="142.00" departLane="48778461#0_1" departPos="28.69" departSpeed="0.00" departDelay="0.02" arrival="225.00" arrivalLane="-250295379_1" arrivalPos="126.33" arrivalSpeed="13.37" duration="83.00" routeLength="679.69" waitingTime="1.00" waitingCount="1" stopTime="0.00" timeLoss="20.15" rerouteNo="0" devices="tripinfo_veh229" vType="passenger" speedFactor="0.97" vaporized=""/>
    <tripinfo id="veh251" depart="156.00" departLane="-647610982#1_1" departPos="25.53" departSpeed="0.00" departDelay="0.38" arrival="228.00" arrivalLane="-92198453#4_1" arrivalPos="62.81" arrivalSpeed="14.87" duration="72.00" routeLength="625.56" waitingTime="15.00" waitingCount="1" stopTime="0.00" timeLoss="30.13" rerouteNo="0" devices="tripinfo_veh251" vType="passenger" speedFactor="1.13" vaporized=""/>
    <tripinfo id="veh246" depart="153.00" departLane="859732802#1_0" departPos="96.26" departSpeed="0.00" departDelay="0.48" arrival="229.00" arrivalLane="353939586#1_1" arrivalPos="265.14" arrivalSpeed="13.74" duration="76.00" routeLength="582.99" waitingTime="0.00" waitingCount="0" stopTime="0.00" timeLoss="26.26" rerouteNo="0" devices="tripinfo_veh246" vType="passenger" speedFactor="1.02" vaporized=""/>
    <tripinfo id="veh264" depart="164.00" departLane="-40236153#1_1" departPos="48.07" departSpeed="0.00" departDelay="0.32" arrival="233.00" arrivalLane="48797773_1" arrivalPos="23.80" arrivalSpeed="11.30" duration="69.00" routeLength="545.78" waitingTime="0.00" waitingCount="0" stopTime="0.00" timeLoss="19.69" rerouteNo="0" devices="tripinfo_veh264" vType="passenger" speedFactor="0.90" vaporized=""/>
    <tripinfo id="veh134" depart="84.00" departLane="1136119743#0_1" departPos="7.79" departSpeed="0.00" departDelay="0.92" arrival="234.00" arrivalLane="48778493#2_1" arrivalPos="44.65" arrivalSpeed="13.17" duration="150.00" routeLength="804.82" waitingTime="43.00" waitingCount="1" stopTime="0.00" timeLoss="77.16" rerouteNo="0" devices="tripinfo_veh134" vType="passenger" speedFactor="0.98" vaporized=""/>
    <tripinfo id="veh182" depart="113.00" departLane="383582853_0" departPos="2.66" departSpeed="0.00" departDelay="0.16" arrival="234.00" arrivalLane="-273835688_1" arrivalPos="177.49" arrivalSpeed="14.87" duration="121.00" routeLength="1266.11" waitingTime="2.00" waitingCount="2" stopTime="0.00" timeLoss="32.81" rerouteNo="0" devices="tripinfo_veh182" vType="passenger" speedFactor="1.11" vaporized=""/>
    <tripinfo id="veh32" depart="20.00" departLane="43546343#2_1" departPos="42.06" departSpeed="0.00" departDelay="0.16" arrival="236.00" arrivalLane="671642318#0_1" arrivalPos="87.54" arrivalSpeed="12.74" duration="216.00" routeLength="1925.72" waitingTime="52.00" waitingCount="1" stopTime="0.00" timeLoss="74.76" rerouteNo="0" devices="tripinfo_veh32" vType="emergency" speedFactor="1.00" vaporized=""/>
    <tripinfo id="veh145" depart="90.00" departLane="48736613#3_1" departPos="23.50" departSpeed="0.00" departDelay="0.10" arrival="236.00" arrivalLane="-945794111_1" arrivalPos="62.47" arrivalSpeed="8.11" duration="146.00" routeLength="1696.46" waitingTime="0.00" waitingCount="0" stopTime="0.00" timeLoss="20.16" rerouteNo="0" devices="tripinfo_veh145" vType="passenger" speedFactor="1.03" vaporized=""/>
    <tripinfo id="veh26" depart="17.00" departLane="40236203#3_1" departPos="21.98" departSpeed="0.00" departDelay="0.88" arrival="237.00" arrivalLane="-40330571#1_1" arrivalPos="2.27" arrivalSpeed="12.30" duration="220.00" routeLength="1570.80" waitingTime="6.00" waitingCount="1" stopTime="0.00" timeLoss="92.90" rerouteNo="0" devices="tripinfo_veh26" vType="passenger" speedFactor="0.94" vaporized=""/>
    <tripinfo id="veh198" depart="123.00" departLane="945793486#1_0" departPos="31.09" departSpeed="0.00" departDelay="0.24" arrival="237.00" arrivalLane="40309190_1" arrivalPos="61.38" arrivalSpeed="12.72" duration="114.00" routeLength="1069.05" waitingTime="5.00" waitingCount="2" stopTime="0.00" timeLoss="28.32" rerouteNo="0" devices="tripinfo_veh198" vType="delivery" speedFactor="0.98" vaporized=""/>
    <tripinfo id="veh4" depart="3.00" departLane="945794110_1" departPos="15.30" departSpeed="0.00" departDelay="0.52" arrival="238.00" arrivalLane="43547579#3_1" arrivalPos="115.26" arrivalSpeed="13.15" duration="235.00" routeLength="2684.79" waitingTime="0.00" waitingCount="0" stopTime="0.00" timeLoss="35.62" rerouteNo="0" devices="tripinfo_veh4" vType="passenger" speedFactor="1.02" vaporized=""/>
    <tripinfo id="veh52" depart="33.00" departLane="1135855898_0" departPos="21.97" departSpeed="0.00" departDelay="0.76" arrival="238.00" arrivalLane="-48797767#2_1" arrivalPos="15.37" arrivalSpeed="9.92" duration="205.00" routeLength="1501.10" waitingTime="55.00" waitingCount="2" stopTime="0.00" timeLoss="83.25" rerouteNo="0" devices="tripinfo_veh52" vType="passenger" speedFactor="0.95" vaporized=""/>
    <tripinfo id="veh25" depart="16.00" departLane="40329447_1" departPos="12.33" departSpeed="0.00" departDelay="0.50" arrival="239.00" arrivalLane="43545645#2_1" arrivalPos="314.77" arrivalSpeed="13.78" duration="223.00" routeLength="2495.81" waitingTime="0.00" waitingCount="0" stopTime="0.00" timeLoss="39.78" rerouteNo="0" devices="tripinfo_veh25" vType="motorcycle" speedFactor="1.02" vaporized=""/>
    <tripinfo id="veh114" depart="71.00" departLane="353939570#2_2" departPos="2.67" departSpeed="0.00" departDelay="0.32" arrival="243.00" arrivalLane="647741479_1" arrivalPos="102.89" arrivalSpeed="15.71" duration="172.00" routeLength="1868.44" waitingTime="22.00" waitingCount="2" stopTime="0.00" timeLoss="55.50" rerouteNo="0" devices="tripinfo_veh114" vType="passenger" speedFactor="1.21" vaporized=""/>
    <tripinfo id="veh157" depart="98.00" departLane="250295383#3_1" departPos="4.53" departSpeed="0.00" departDelay="0.66" arrival="245.00" arrivalLane="43546688#0_1" arrivalPos="19.83" arrivalSpeed="11.96" duration="147.00" routeLength="1115.42" waitingTime="41.00" waitingCount="1" stopTime="0.00" timeLoss="72.56" rerouteNo="0" devices="tripinfo_veh157" vType="passenger" speedFactor="1.15" vaporized=""/>
    <tripinfo id="veh50" depart="31.00" departLane="859728205_0" departPos="7.63" departSpeed="0.00" departDelay="0.00" arrival="246.00" arrivalLane="-383582513_0" arrivalPos="62.69" arrivalSpeed="4.90" duration="215.00" routeLength="1888.27" waitingTime="25.00" waitingCount="1" stopTime="0.00" timeLoss="52.03" rerouteNo="0" devices="tripinfo_veh50" vType="passenger" speedFactor="0.96" vaporized=""/>
    <tripinfo id="veh159" depart="99.00" departLane="-E11_2" departPos="4.31" departSpeed="0.00" departDelay="0.42" arrival="247.00" arrivalLane="1135772297_0" arrivalPos="4.72" arrivalSpeed="4.56" duration="148.00" routeLength="1713.26" waitingTime="0.00" waitingCount="0" stopTime="0.00" timeLoss="19.61" rerouteNo="0" devices="tripinfo_veh159" vType="passenger" speedFactor="1.04" vaporized=""/>
    <tripinfo id="veh281" depart="175.00" departLane="-40265775#1_1" departPos="44.31" departSpeed="0.00" departDelay="0.78" arrival="247.00" arrivalLane="250295384_1" arrivalPos="124.18" arrivalSpeed="12.66" duration="72.00" routeLength="745.17" waitingTime="0.00" waitingCount="0" stopTime="0.00" timeLoss="13.08" rerouteNo="0" devices="tripinfo_veh281" vType="motorcycle" speedFactor="0.97" vaporized=""/>
    <tripinfo id="veh253" depart="157.00" departLane="-43546053#0_1" departPos="99.69" departSpeed="0.00" departDelay="0.14" arrival="249.00" arrivalLane="-43546935#2_1" arrivalPos="44.28" arrivalSpeed="14.47" duration="92.00" routeLength="1123.27" waitingTime="0.00" waitingCount="0" stopTime="0.00" timeLoss="14.40" rerouteNo="0" devices="tripinfo_veh253" vType="passenger" speedFactor="1.09" vaporized=""/>