<?xml version="1.0" encoding="UTF-8"?>

<!-- generated on 2025-06-12 12:31:56 by Eclipse SUMO sumo Version 1.22.0
<sumoConfiguration xmlns:xsi="http://www.w3.org/2001/XMLSchema-instance" xsi:noNamespaceSchemaLocation="http://sumo.dlr.de/xsd/sumoConfiguration.xsd">

    <input>
        <net-file value="osm.net.xml"/>
        <route-files value="full.rou.xml, ped.rou.xml, truck.rou.xml"/>
        <additional-files value="osm.poly.xml, vtypes.xml"/>
    </input>

    <output>
        <summary-output value="summary.xml"/>
        <tripinfo-output value="E:\licenta\oras-mediu\2025-06-05-11-45-23\baseline_outputs\tripinfo_baseline_ep10.xml"/>
    </output>

    <processing>
        <ignore-route-errors value="true"/>
        <tls.actuated.jam-threshold value="30"/>
    </processing>

    <routing>
        <device.rerouting.adaptation-steps value="18"/>
        <device.rerouting.adaptation-interval value="10"/>
    </routing>

    <report>
        <verbose value="true"/>
        <duration-log.statistics value="true"/>
        <no-step-log value="true"/>
    </report>

    <traci_server>
        <remote-port value="64493"/>
    </traci_server>

    <gui_only>
        <gui-settings-file value="osm.view.xml"/>
    </gui_only>

</sumoConfiguration>
-->

<tripinfos xmlns:xsi="http://www.w3.org/2001/XMLSchema-instance" xsi:noNamespaceSchemaLocation="http://sumo.dlr.de/xsd/tripinfo_file.xsd">
    <tripinfo id="veh14" depart="6.00" departLane="-40299738_1" departPos="2.90" departSpeed="0.00" departDelay="0.12" arrival="41.00" arrivalLane="-40314883_1" arrivalPos="74.78" arrivalSpeed="13.96" duration="35.00" routeLength="382.01" waitingTime="0.00" waitingCount="0" stopTime="0.00" timeLoss="6.32" rerouteNo="0" devices="tripinfo_veh14" vType="passenger" speedFactor="1.02" vaporized=""/>
    <tripinfo id="veh41" depart="18.00" departLane="-48778461#1_1" departPos="8.39" departSpeed="0.00" departDelay="0.78" arrival="52.00" arrivalLane="256555440#0_1" arrivalPos="59.99" arrivalSpeed="16.02" duration="34.00" routeLength="293.60" waitingTime="0.00" waitingCount="0" stopTime="0.00" timeLoss="13.45" rerouteNo="0" devices="tripinfo_veh41" vType="passenger" speedFactor="1.17" vaporized=""/>
    <tripinfo id="veh72" depart="31.00" departLane="43547017#2_1" departPos="45.34" departSpeed="0.00" departDelay="0.76" arrival="62.00" arrivalLane="-43544138#0_1" arrivalPos="44.10" arrivalSpeed="14.21" duration="31.00" routeLength="321.83" waitingTime="0.00" waitingCount="0" stopTime="0.00" timeLoss="7.05" rerouteNo="0" devices="tripinfo_veh72" vType="passenger" speedFactor="1.05" vaporized=""/>
    <tripinfo id="veh19" depart="8.00" departLane="67736383_1" departPos="24.39" departSpeed="0.00" departDelay="0.02" arrival="75.00" arrivalLane="-43547017#5_1" arrivalPos="24.30" arrivalSpeed="10.94" duration="67.00" routeLength="588.86" waitingTime="0.00" waitingCount="0" stopTime="0.00" timeLoss="15.56" rerouteNo="0" devices="tripinfo_veh19" vType="passenger" speedFactor="0.87" vaporized=""/>
    <tripinfo id="veh22" depart="10.00" departLane="43546057_1" departPos="6.67" departSpeed="0.00" departDelay="0.76" arrival="75.00" arrivalLane="43544197#5_1" arrivalPos="40.80" arrivalSpeed="12.05" duration="65.00" routeLength="621.10" waitingTime="0.00" waitingCount="0" stopTime="0.00" timeLoss="12.78" rerouteNo="0" devices="tripinfo_veh22" vType="passenger" speedFactor="0.89" vaporized=""/>
    <tripinfo id="veh7" depart="3.00" departLane="264868325_1" departPos="81.80" departSpeed="0.00" departDelay="0.06" arrival="82.00" arrivalLane="647347140#1_1" arrivalPos="28.09" arrivalSpeed="12.38" duration="79.00" routeLength="754.23" waitingTime="0.00" waitingCount="0" stopTime="0.00" timeLoss="16.52" rerouteNo="0" devices="tripinfo_veh7" vType="passenger" speedFactor="0.92" vaporized=""/>
    <tripinfo id="veh131" depart="56.00" departLane="222609002#4_1" departPos="33.04" departSpeed="0.00" departDelay="0.98" arrival="82.00" arrivalLane="-647347140#2_1" arrivalPos="23.54" arrivalSpeed="12.05" duration="26.00" routeLength="262.57" waitingTime="0.00" waitingCount="0" stopTime="0.00" timeLoss="6.23" rerouteNo="0" devices="tripinfo_veh131" vType="motorcycle" speedFactor="1.01" vaporized=""/>
    <tripinfo id="veh91" depart="39.00" departLane="43544624#1_1" departPos="51.01" departSpeed="0.00" departDelay="0.78" arrival="86.00" arrivalLane="43544138#5_1" arrivalPos="39.45" arrivalSpeed="15.87" duration="47.00" routeLength="498.91" waitingTime="0.00" waitingCount="0" stopTime="0.00" timeLoss="15.25" rerouteNo="0" devices="tripinfo_veh91" vType="passenger" speedFactor="1.25" vaporized=""/>
    <tripinfo id="veh39" depart="17.00" departLane="-48778521#1_1" departPos="5.55" departSpeed="0.00" departDelay="0.62" arrival="91.00" arrivalLane="-43546105#2_1" arrivalPos="10.89" arrivalSpeed="14.20" duration="74.00" routeLength="796.10" waitingTime="0.00" waitingCount="0" stopTime="0.00" timeLoss="12.48" rerouteNo="0" devices="tripinfo_veh39" vType="passenger" speedFactor="1.06" vaporized=""/>
    <tripinfo id="veh107" depart="45.00" departLane="996984133_1" departPos="52.77" departSpeed="0.00" departDelay="0.06" arrival="95.00" arrivalLane="43573547#0_1" arrivalPos="148.85" arrivalSpeed="13.39" duration="50.00" routeLength="584.06" waitingTime="0.00" waitingCount="0" stopTime="0.00" timeLoss="7.13" rerouteNo="0" devices="tripinfo_veh107" vType="passenger" speedFactor="1.03" vaporized=""/>
    <tripinfo id="veh66" depart="28.00" departLane="-258551297#0_0" departPos="7.17" departSpeed="0.00" departDelay="0.28" arrival="98.00" arrivalLane="48778481#8_1" arrivalPos="12.21" arrivalSpeed="13.47" duration="70.00" routeLength="803.02" waitingTime="0.00" waitingCount="0" stopTime="0.00" timeLoss="8.06" rerouteNo="0" devices="tripinfo_veh66" vType="passenger" speedFactor="0.98" vaporized=""/>
    <tripinfo id="veh20" depart="9.00" departLane="1135855898_0" departPos="14.91" departSpeed="0.00" departDelay="0.60" arrival="101.00" arrivalLane="984508804_0" arrivalPos="26.89" arrivalSpeed="5.09" duration="92.00" routeLength="921.91" waitingTime="0.00" waitingCount="0" stopTime="0.00" timeLoss="16.33" rerouteNo="0" devices="tripinfo_veh20" vType="passenger" speedFactor="1.03" vaporized=""/>
    <personinfo id="ped5" depart="25.00" type="DEFAULT_PEDTYPE" speedFactor="0.98" duration="88.00" waitingTime="0.00" timeLoss="9.98" traveltime="88.00">
        <walk depart="25.00" departPos="0.00" arrival="113.00" arrivalPos="19.00" duration="88.00" routeLength="105.76" timeLoss="9.98" maxSpeed="1.36"/>
    </personinfo>
    <tripinfo id="veh3" depart="2.00" departLane="40306162#1_1" departPos="22.85" departSpeed="0.00" departDelay="0.74" arrival="113.00" arrivalLane="492965073#8_2" arrivalPos="91.29" arrivalSpeed="14.51" duration="111.00" routeLength="978.47" waitingTime="0.00" waitingCount="0" stopTime="0.00" timeLoss="32.38" rerouteNo="0" devices="tripinfo_veh3" vType="passenger" speedFactor="1.08" vaporized=""/>
    <tripinfo id="veh105" depart="45.00" departLane="-48736667_1" departPos="60.93" departSpeed="0.00" departDelay="0.90" arrival="114.00" arrivalLane="222605087#0_1" arrivalPos="20.28" arrivalSpeed="4.73" duration="69.00" routeLength="717.23" waitingTime="0.00" waitingCount="0" stopTime="0.00" timeLoss="14.32" rerouteNo="0" devices="tripinfo_veh105" vType="passenger" speedFactor="1.02" vaporized=""/>
    <tripinfo id="veh134" depart="57.00" departLane="48797774_1" departPos="81.32" departSpeed="0.00" departDelay="0.72" arrival="117.00" arrivalLane="354259928_1" arrivalPos="68.18" arrivalSpeed="11.36" duration="60.00" routeLength="403.55" waitingTime="12.00" waitingCount="1" stopTime="0.00" timeLoss="25.16" rerouteNo="0" devices="tripinfo_veh134" vType="passenger" speedFactor="0.88" vaporized=""/>
    <tripinfo id="veh50" depart="21.00" departLane="-40330575#0_1" departPos="14.52" departSpeed="0.00" departDelay="0.00" arrival="119.00" arrivalLane="48778508#3_1" arrivalPos="2.38" arrivalSpeed="5.34" duration="98.00" routeLength="489.70" waitingTime="0.00" waitingCount="0" stopTime="0.00" timeLoss="9.62" rerouteNo="0" devices="tripinfo_veh50" vType="bicycle" speedFactor="1.00" vaporized=""/>
    <tripinfo id="veh69" depart="29.00" departLane="43544184#4_1" departPos="6.87" departSpeed="0.00" departDelay="0.02" arrival="121.00" arrivalLane="-48778500#1_1" arrivalPos="81.60" arrivalSpeed="12.36" duration="92.00" routeLength="914.97" waitingTime="0.00" waitingCount="0" stopTime="0.00" timeLoss="18.09" rerouteNo="0" devices="tripinfo_veh69" vType="motorcycle" speedFactor="0.94" vaporized=""/>
    <tripinfo id="veh118" depart="50.00" departLane="43544001#2_1" departPos="27.82" departSpeed="0.00" departDelay="0.44" arrival="122.00" arrivalLane="-43544179#6_1" arrivalPos="35.50" arrivalSpeed="14.00" duration="72.00" routeLength="851.32" waitingTime="0.00" waitingCount="0" stopTime="0.00" timeLoss="10.65" rerouteNo="0" devices="tripinfo_veh118" vType="passenger" speedFactor="1.02" vaporized=""/>
    <tripinfo id="veh59" depart="25.00" departLane="-304695350#2_1" departPos="6.60" departSpeed="0.00" departDelay="0.22" arrival="123.00" arrivalLane="-383582497_0" arrivalPos="31.03" arrivalSpeed="2.67" duration="98.00" routeLength="680.75" waitingTime="10.00" waitingCount="1" stopTime="0.00" timeLoss="33.92" rerouteNo="0" devices="tripinfo_veh59" vType="passenger" speedFactor="1.12" vaporized=""/>
    <tripinfo id="veh42" depart="18.00" departLane="-E11_2" departPos="6.70" departSpeed="0.00" departDelay="0.36" arrival="127.00" arrivalLane="-470210923#0_1" arrivalPos="120.19" arrivalSpeed="13.86" duration="109.00" routeLength="1094.01" waitingTime="3.00" waitingCount="1" stopTime="0.00" timeLoss="21.29" rerouteNo="0" devices="tripinfo_veh42" vType="passenger" speedFactor="1.05" vaporized=""/>
    <tripinfo id="veh192" depart="81.00" departLane="43546088_1" departPos="163.56" departSpeed="0.00" departDelay="0.36" arrival="127.00" arrivalLane="-43544046_1" arrivalPos="104.31" arrivalSpeed="14.19" duration="46.00" routeLength="414.08" waitingTime="0.00" waitingCount="0" stopTime="0.00" timeLoss="15.50" rerouteNo="0" devices="tripinfo_veh192" vType="passenger" speedFactor="1.06" vaporized=""/>
    <tripinfo id="veh80" depart="34.00" departLane="-40265775#0_1" departPos="57.38" departSpeed="0.00" departDelay="0.40" arrival="135.00" arrivalLane="-984521611#0_0" arrivalPos="6.06" arrivalSpeed="5.20" duration="101.00" routeLength="970.16" waitingTime="0.00" waitingCount="0" stopTime="0.00" timeLoss="25.91" rerouteNo="0" devices="tripinfo_veh80" vType="passenger" speedFactor="1.10" vaporized=""/>
    <tripinfo id="veh197" depart="83.00" departLane="289113778#1_1" departPos="387.65" departSpeed="0.00" departDelay="0.26" arrival="137.00" arrivalLane="-647998063#2_1" arrivalPos="107.06" arrivalSpeed="12.93" duration="54.00" routeLength="522.50" waitingTime="0.00" waitingCount="0" stopTime="0.00" timeLoss="12.31" rerouteNo="0" devices="tripinfo_veh197" vType="delivery" speedFactor="0.99" vaporized=""/>
    <tripinfo id="veh76" depart="32.00" departLane="264868333_1" departPos="55.98" departSpeed="0.00" departDelay="0.08" arrival="138.00" arrivalLane="48736638#1_1" arrivalPos="89.48" arrivalSpeed="12.35" duration="106.00" routeLength="1057.03" waitingTime="0.00" waitingCount="0" stopTime="0.00" timeLoss="17.26" rerouteNo="0" devices="tripinfo_veh76" vType="passenger" speedFactor="0.91" vaporized=""/>
    <tripinfo id="veh173" depart="73.00" departLane="1136301818_1" departPos="3.10" departSpeed="0.00" departDelay="0.34" arrival="141.00" arrivalLane="40269009#1_1" arrivalPos="27.44" arrivalSpeed="13.35" duration="68.00" routeLength="661.47" waitingTime="0.00" waitingCount="0" stopTime="0.00" timeLoss="19.34" rerouteNo="0" devices="tripinfo_veh173" vType="passenger" speedFactor="1.07" vaporized=""/>
    <tripinfo id="veh122" depart="52.00" departLane="-48778516_1" departPos="54.86" departSpeed="0.00" departDelay="0.76" arrival="145.00" arrivalLane="48778511_1" arrivalPos="75.86" arrivalSpeed="13.83" duration="93.00" routeLength="925.96" waitingTime="0.00" waitingCount="0" stopTime="0.00" timeLoss="25.63" rerouteNo="0" devices="tripinfo_veh122" vType="delivery" speedFactor="1.06" vaporized=""/>
    <personinfo id="ped27" depart="135.00" type="DEFAULT_PEDTYPE" speedFactor="1.00" duration="11.00" waitingTime="0.00" timeLoss="1.90" traveltime="11.00">
        <walk depart="135.00" departPos="0.00" arrival="146.00" arrivalPos="12.63" duration="11.00" routeLength="12.63" timeLoss="1.90" maxSpeed="1.39"/>
    </personinfo>
    <personinfo id="ped22" depart="110.00" type="DEFAULT_PEDTYPE" speedFactor="1.11" duration="38.00" waitingTime="0.00" timeLoss="3.39" traveltime="38.00">
        <walk depart="110.00" departPos="0.00" arrival="148.00" arrivalPos="4.00" duration="38.00" routeLength="53.31" timeLoss="3.39" maxSpeed="1.54"/>
    </personinfo>
    <tripinfo id="veh21" depart="9.00" departLane="-258551317_1" departPos="66.03" departSpeed="0.00" departDelay="0.18" arrival="149.00" arrivalLane="43546519#2_1" arrivalPos="8.00" arrivalSpeed="13.09" duration="140.00" routeLength="1220.90" waitingTime="27.00" waitingCount="1" stopTime="0.00" timeLoss="58.47" rerouteNo="0" devices="tripinfo_veh21" vType="passenger" speedFactor="1.13" vaporized=""/>
    <tripinfo id="veh109" depart="46.00" departLane="-48778508#1_1" departPos="50.45" departSpeed="0.00" departDelay="0.22" arrival="149.00" arrivalLane="222605084#4_1" arrivalPos="16.56" arrivalSpeed="5.32" duration="103.00" routeLength="1035.34" waitingTime="0.00" waitingCount="0" stopTime="0.00" timeLoss="16.17" rerouteNo="0" devices="tripinfo_veh109" vType="passenger" speedFactor="1.12" vaporized=""/>
    <tripinfo id="veh152" depart="64.00" departLane="-859727041_0" departPos="29.31" departSpeed="0.00" departDelay="0.16" arrival="153.00" arrivalLane="994065253_0" arrivalPos="79.67" arrivalSpeed="3.59" duration="89.00" routeLength="459.48" waitingTime="0.00" waitingCount="0" stopTime="0.00" timeLoss="18.96" rerouteNo="0" devices="tripinfo_veh152" vType="motorcycle" speedFactor="0.97" vaporized=""/>
    <tripinfo id="veh70" depart="30.00" departLane="43546057_1" departPos="74.41" departSpeed="0.00" departDelay="0.60" arrival="154.00" arrivalLane="-43546039#2_1" arrivalPos="275.61" arrivalSpeed="11.26" duration="124.00" routeLength="1221.16" waitingTime="0.00" waitingCount="0" stopTime="0.00" timeLoss="14.89" rerouteNo="0" devices="tripinfo_veh70" vType="passenger" speedFactor="0.83" vaporized=""/>
    <tripinfo id="veh58" depart="25.00" departLane="174818018#0_0" departPos="182.74" departSpeed="0.00" departDelay="0.64" arrival="158.00" arrivalLane="48736612#7_1" arrivalPos="28.96" arrivalSpeed="8.55" duration="133.00" routeLength="1183.88" waitingTime="0.00" waitingCount="0" stopTime="0.00" timeLoss="15.85" rerouteNo="0" devices="tripinfo_veh58" vType="passenger" speedFactor="1.06" vaporized=""/>
    <tripinfo id="veh92" depart="39.00" departLane="383582500_0" departPos="104.68" departSpeed="0.00" departDelay="0.36" arrival="158.00" arrivalLane="-43546460#1_1" arrivalPos="137.05" arrivalSpeed="11.18" duration="119.00" routeLength="827.39" waitingTime="4.00" waitingCount="1" stopTime="0.00" timeLoss="23.93" rerouteNo="0" devices="tripinfo_veh92" vType="passenger" speedFactor="0.87" vaporized=""/>
    <tripinfo id="veh25" depart="11.00" departLane="43546935#0_1" departPos="215.89" departSpeed="0.00" departDelay="0.50" arrival="159.00" arrivalLane="-33909936#2_1" arrivalPos="60.97" arrivalSpeed="13.63" duration="148.00" routeLength="1328.43" waitingTime="25.00" waitingCount="1" stopTime="0.00" timeLoss="48.19" rerouteNo="0" devices="tripinfo_veh25" vType="passenger" speedFactor="0.99" vaporized=""/>
    <tripinfo id="veh141" depart="60.00" departLane="-40236232#0_1" departPos="8.73" departSpeed="0.00" departDelay="0.78" arrival="160.00" arrivalLane="48778443#1_1" arrivalPos="92.66" arrivalSpeed="11.83" duration="100.00" routeLength="879.38" waitingTime="0.00" waitingCount="0" stopTime="0.00" timeLoss="21.05" rerouteNo="0" devices="tripinfo_veh141" vType="passenger" speedFactor="0.87" vaporized=""/>
    <tripinfo id="veh1" depart="1.00" departLane="48736607#0_1" departPos="1.67" departSpeed="0.00" departDelay="0.58" arrival="163.00" arrivalLane="48778480#7_1" arrivalPos="258.72" arrivalSpeed="13.87" duration="162.00" routeLength="2073.29" waitingTime="0.00" waitingCount="0" stopTime="0.00" timeLoss="20.14" rerouteNo="0" devices="tripinfo_veh1" vType="passenger" speedFactor="1.08" vaporized=""/>
    <tripinfo id="veh52" depart="22.00" departLane="-48736613#2_1" departPos="118.75" departSpeed="0.00" departDelay="0.16" arrival="166.00" arrivalLane="-43547296#0_1" arrivalPos="163.38" arrivalSpeed="12.05" duration="144.00" routeLength="1231.55" waitingTime="24.00" waitingCount="1" stopTime="0.00" timeLoss="48.35" rerouteNo="0" devices="tripinfo_veh52" vType="passenger" speedFactor="0.96" vaporized=""/>
    <tripinfo id="veh157" depart="66.00" departLane="92198453#2_1" departPos="24.31" departSpeed="0.00" departDelay="0.06" arrival="170.00" arrivalLane="-492965073#10_1" arrivalPos="59.87" arrivalSpeed="11.89" duration="104.00" routeLength="828.91" waitingTime="20.00" waitingCount="2" stopTime="0.00" timeLoss="35.83" rerouteNo="0" devices="tripinfo_veh157" vType="passenger" speedFactor="0.89" vaporized=""/>
    <tripinfo id="veh240" depart="101.00" departLane="-48778496_1" departPos="64.56" departSpeed="0.00" departDelay="0.20" arrival="171.00" arrivalLane="222605087#1_1" arrivalPos="24.01" arrivalSpeed="4.89" duration="70.00" routeLength="382.78" waitingTime="12.00" waitingCount="2" stopTime="0.00" timeLoss="32.14" rerouteNo="0" devices="tripinfo_veh240" vType="passenger" speedFactor="1.03" vaporized=""/>
    <tripinfo id="veh284" depart="120.00" departLane="647347140#1_1" departPos="10.10" departSpeed="0.00" departDelay="0.72" arrival="173.00" arrivalLane="-354259933#3_1" arrivalPos="60.32" arrivalSpeed="13.29" duration="53.00" routeLength="531.63" waitingTime="0.00" waitingCount="0" stopTime="0.00" timeLoss="10.85" rerouteNo="0" devices="tripinfo_veh284" vType="passenger" speedFactor="1.00" vaporized=""/>
    <tripinfo id="veh220" depart="93.00" departLane="-40330575#1_1" departPos="3.34" departSpeed="0.00" departDelay="0.60" arrival="174.00" arrivalLane="222609004#0_1" arrivalPos="29.46" arrivalSpeed="12.35" duration="81.00" routeLength="635.31" waitingTime="9.00" waitingCount="1" stopTime="0.00" timeLoss="36.76" rerouteNo="0" devices="tripinfo_veh220" vType="passenger" speedFactor="1.13" vaporized=""/>
    <tripinfo id="veh125" depart="53.00" departLane="-48736610#2_1" departPos="39.30" departSpeed="0.00" departDelay="0.50" arrival="177.00" arrivalLane="-48736614#3_1" arrivalPos="131.33" arrivalSpeed="12.31" duration="124.00" routeLength="1042.75" waitingTime="15.00" waitingCount="1" stopTime="0.00" timeLoss="37.80" rerouteNo="0" devices="tripinfo_veh125" vType="passenger" speedFactor="0.97" vaporized=""/>
    <tripinfo id="veh95" depart="40.00" departLane="-40306162#1_1" departPos="12.68" departSpeed="0.00" departDelay="0.10" arrival="178.00" arrivalLane="-945794110_1" arrivalPos="52.39" arrivalSpeed="8.07" duration="138.00" routeLength="1260.17" waitingTime="13.00" waitingCount="1" stopTime="0.00" timeLoss="39.71" rerouteNo="0" devices="tripinfo_veh95" vType="delivery" speedFactor="1.01" vaporized=""/>
    <personinfo id="ped28" depart="140.00" type="DEFAULT_PEDTYPE" speedFactor="0.90" duration="39.00" waitingTime="0.00" timeLoss="4.28" traveltime="39.00">
        <walk depart="140.00" departPos="0.00" arrival="179.00" arrivalPos="7.92" duration="39.00" routeLength="43.25" timeLoss="4.28" maxSpeed="1.25"/>
    </personinfo>
    <tripinfo id="veh233" depart="98.00" departLane="1136279385_1" departPos="87.32" departSpeed="0.00" departDelay="0.14" arrival="179.00" arrivalLane="48736610#2_1" arrivalPos="70.64" arrivalSpeed="11.15" duration="81.00" routeLength="522.10" waitingTime="2.00" waitingCount="2" stopTime="0.00" timeLoss="26.56" rerouteNo="0" devices="tripinfo_veh233" vType="passenger" speedFactor="0.87" vaporized=""/>
    <personinfo id="ped8" depart="40.00" type="DEFAULT_PEDTYPE" speedFactor="1.12" duration="141.00" waitingTime="0.00" timeLoss="14.90" traveltime="141.00">
        <walk depart="40.00" departPos="0.00" arrival="181.00" arrivalPos="30.16" duration="141.00" routeLength="196.00" timeLoss="14.90" maxSpeed="1.55"/>
    </personinfo>
    <tripinfo id="veh138" depart="58.00" departLane="-1136301811_1" departPos="18.65" departSpeed="0.00" departDelay="0.04" arrival="181.00" arrivalLane="578560104#2_1" arrivalPos="122.59" arrivalSpeed="12.39" duration="123.00" routeLength="1080.66" waitingTime="4.00" waitingCount="2" stopTime="0.00" timeLoss="31.20" rerouteNo="0" devices="tripinfo_veh138" vType="motorcycle" speedFactor="0.91" vaporized=""/>
    <tripinfo id="veh170" depart="72.00" departLane="40330571#3_1" departPos="32.88" departSpeed="0.00" departDelay="0.60" arrival="181.00" arrivalLane="-578560104#4_1" arrivalPos="13.09" arrivalSpeed="11.40" duration="109.00" routeLength="834.61" waitingTime="10.00" waitingCount="2" stopTime="0.00" timeLoss="37.15" rerouteNo="0" devices="tripinfo_veh170" vType="passenger" speedFactor="0.87" vaporized=""/>
    <tripinfo id="veh166" depart="70.00" departLane="-43544179#7_1" departPos="8.03" departSpeed="0.00" departDelay="0.28" arrival="184.00" arrivalLane="-48778500#1_1" arrivalPos="81.60" arrivalSpeed="15.87" duration="114.00" routeLength="1417.57" waitingTime="0.00" waitingCount="0" stopTime="0.00" timeLoss="22.32" rerouteNo="0" devices="tripinfo_veh166" vType="passenger" speedFactor="1.15" vaporized=""/>
    <tripinfo id="veh187" depart="79.00" departLane="273836978#1_1" departPos="38.19" departSpeed="0.00" departDelay="0.46" arrival="184.00" arrivalLane="-492965073#8_1" arrivalPos="91.38" arrivalSpeed="13.41" duration="105.00" routeLength="992.82" waitingTime="0.00" waitingCount="0" stopTime="0.00" timeLoss="25.31" rerouteNo="0" devices="tripinfo_veh187" vType="motorcycle" speedFactor="1.00" vaporized=""/>
    <tripinfo id="veh288" depart="121.00" departLane="48778525#0_1" departPos="14.47" departSpeed="0.00" departDelay="0.04" arrival="184.00" arrivalLane="-43544138#6_1" arrivalPos="39.11" arrivalSpeed="12.34" duration="63.00" routeLength="613.61" waitingTime="0.00" waitingCount="0" stopTime="0.00" timeLoss="23.99" rerouteNo="0" devices="tripinfo_veh288" vType="passenger" speedFactor="1.26" vaporized=""/>
    <tripinfo id="veh184" depart="78.00" departLane="-43573573#0_1" departPos="4.69" departSpeed="0.00" departDelay="0.72" arrival="186.00" arrivalLane="43544179#8_1" arrivalPos="43.05" arrivalSpeed="12.77" duration="108.00" routeLength="1145.02" waitingTime="0.00" waitingCount="0" stopTime="0.00" timeLoss="20.53" rerouteNo="0" devices="tripinfo_veh184" vType="passenger" speedFactor="0.97" vaporized=""/>
    <tripinfo id="veh205" depart="87.00" departLane="40299283_1" departPos="8.68" departSpeed="0.00" departDelay="0.90" arrival="187.00" arrivalLane="-48736638#0_1" arrivalPos="65.36" arrivalSpeed="10.82" duration="100.00" routeLength="735.46" waitingTime="0.00" waitingCount="0" stopTime="0.00" timeLoss="19.79" rerouteNo="0" devices="tripinfo_veh205" vType="passenger" speedFactor="0.85" vaporized=""/>
    <tripinfo id="veh123" depart="52.00" departLane="-984508804_0" departPos="5.12" departSpeed="0.00" departDelay="0.34" arrival="188.00" arrivalLane="945794109_1" arrivalPos="21.82" arrivalSpeed="9.95" duration="136.00" routeLength="991.08" waitingTime="32.00" waitingCount="3" stopTime="0.00" timeLoss="71.10" rerouteNo="0" devices="tripinfo_veh123" vType="passenger" speedFactor="1.21" vaporized=""/>
    <tripinfo id="veh113" depart="48.00" departLane="-40299739#0_1" departPos="79.66" departSpeed="0.00" departDelay="0.54" arrival="189.00" arrivalLane="-256684296_0" arrivalPos="80.07" arrivalSpeed="1.77" duration="141.00" routeLength="941.04" waitingTime="0.00" waitingCount="0" stopTime="0.00" timeLoss="27.14" rerouteNo="0" devices="tripinfo_veh113" vType="motorcycle" speedFactor="0.84" vaporized=""/>
    <tripinfo id="veh255" depart="108.00" departLane="43546648#6_1" departPos="45.56" departSpeed="0.00" departDelay="0.90" arrival="191.00" arrivalLane="-1135856957_0" arrivalPos="27.07" arrivalSpeed="4.29" duration="83.00" routeLength="677.37" waitingTime="9.00" waitingCount="2" stopTime="0.00" timeLoss="26.30" rerouteNo="0" devices="tripinfo_veh255" vType="motorcycle" speedFactor="0.98" vaporized=""/>
    <personinfo id="ped18" depart="90.00" type="DEFAULT_PEDTYPE" speedFactor="1.05" duration="102.00" waitingTime="0.00" timeLoss="10.30" traveltime="102.00">
        <walk depart="90.00" departPos="0.00" arrival="192.00" arrivalPos="20.40" duration="102.00" routeLength="133.11" timeLoss="10.30" maxSpeed="1.45"/>
    </personinfo>
    <tripinfo id="veh85" depart="36.00" departLane="-43546064#1_1" departPos="22.59" departSpeed="0.00" departDelay="0.30" arrival="192.00" arrivalLane="40236146_1" arrivalPos="206.28" arrivalSpeed="11.83" duration="156.00" routeLength="1657.13" waitingTime="0.00" waitingCount="0" stopTime="0.00" timeLoss="19.19" rerouteNo="0" devices="tripinfo_veh85" vType="passenger" speedFactor="0.89" vaporized=""/>
    <tripinfo id="veh62" depart="27.00" departLane="-48736624#3_1" departPos="21.08" departSpeed="0.00" departDelay="0.96" arrival="194.00" arrivalLane="1136301811_1" arrivalPos="31.32" arrivalSpeed="8.78" duration="167.00" routeLength="1871.97" waitingTime="1.00" waitingCount="1" stopTime="0.00" timeLoss="34.14" rerouteNo="0" devices="tripinfo_veh62" vType="passenger" speedFactor="1.09" vaporized=""/>
    <tripinfo id="veh100" depart="42.00" departLane="48778454#0_1" departPos="8.08" departSpeed="0.00" departDelay="0.00" arrival="194.00" arrivalLane="-945793485#0_1" arrivalPos="25.01" arrivalSpeed="12.51" duration="152.00" routeLength="1208.58" waitingTime="12.00" waitingCount="1" stopTime="0.00" timeLoss="49.87" rerouteNo="0" devices="tripinfo_veh100" vType="passenger" speedFactor="0.99" vaporized=""/>
    <tripinfo id="veh238" depart="100.00" departLane="-250295380#0_1" departPos="57.77" departSpeed="0.00" departDelay="0.04" arrival="196.00" arrivalLane="40306149_1" arrivalPos="62.47" arrivalSpeed="15.07" duration="96.00" routeLength="998.05" waitingTime="6.00" waitingCount="1" stopTime="0.00" timeLoss="30.64" rerouteNo="0" devices="tripinfo_veh238" vType="passenger" speedFactor="1.16" vaporized=""/>
    <tripinfo id="veh250" depart="105.00" departLane="48778464#1_1" departPos="9.95" departSpeed="0.00" departDelay="0.00" arrival="196.00" arrivalLane="-48778475#1_1" arrivalPos="25.99" arrivalSpeed="11.57" duration="91.00" routeLength="727.01" waitingTime="5.00" waitingCount="1" stopTime="0.00" timeLoss="39.78" rerouteNo="0" devices="tripinfo_veh250" vType="passenger" speedFactor="1.16" vaporized=""/>
    <tripinfo id="veh29" depart="13.00" departLane="33913538#0_1" departPos="91.13" departSpeed="0.00" departDelay="0.82" arrival="199.00" arrivalLane="-40314583#7_1" arrivalPos="24.38" arrivalSpeed="11.44" duration="186.00" routeLength="1727.76" waitingTime="41.00" waitingCount="2" stopTime="0.00" timeLoss="70.62" rerouteNo="0" devices="tripinfo_veh29" vType="passenger" speedFactor="1.10" vaporized=""/>
    <tripinfo id="veh65" depart="28.00" departLane="-354252035_1" departPos="0.09" departSpeed="0.00" departDelay="0.70" arrival="202.00" arrivalLane="-383582503_0" arrivalPos="105.76" arrivalSpeed="5.05" duration="174.00" routeLength="1962.74" waitingTime="2.00" waitingCount="1" stopTime="0.00" timeLoss="29.49" rerouteNo="0" devices="tripinfo_veh65" vType="passenger" speedFactor="1.08" vaporized=""/>
    <tripinfo id="veh158" depart="67.00" departLane="-1135854210_1" departPos="9.93" departSpeed="0.00" departDelay="0.64" arrival="204.00" arrivalLane="143207982#0_1" arrivalPos="45.05" arrivalSpeed="13.12" duration="137.00" routeLength="1256.66" waitingTime="36.00" waitingCount="2" stopTime="0.00" timeLoss="58.29" rerouteNo="0" devices="tripinfo_veh158" vType="passenger" speedFactor="1.18" vaporized=""/>
    <tripinfo id="veh49" depart="21.00" departLane="-25379984#2_2" departPos="96.57" departSpeed="0.00" departDelay="0.42" arrival="208.00" arrivalLane="48778489#3_1" arrivalPos="140.23" arrivalSpeed="14.34" duration="187.00" routeLength="1688.79" waitingTime="43.00" waitingCount="1" stopTime="0.00" timeLoss="74.36" rerouteNo="0" devices="tripinfo_veh49" vType="passenger" speedFactor="1.12" vaporized=""/>
    <tripinfo id="veh171" depart="72.00" departLane="48778508#2_1" departPos="0.50" departSpeed="0.00" departDelay="0.18" arrival="208.00" arrivalLane="222605087#4_1" arrivalPos="52.91" arrivalSpeed="5.23" duration="136.00" routeLength="1169.62" waitingTime="2.00" waitingCount="1" stopTime="0.00" timeLoss="27.88" rerouteNo="0" devices="tripinfo_veh171" vType="passenger" speedFactor="1.03" vaporized=""/>
    <tripinfo id="veh264" depart="111.00" departLane="-647621858_0" departPos="30.71" departSpeed="0.00" departDelay="0.12" arrival="208.00" arrivalLane="492965073#8_1" arrivalPos="91.29" arrivalSpeed="14.63" duration="97.00" routeLength="1079.54" waitingTime="1.00" waitingCount="1" stopTime="0.00" timeLoss="16.95" rerouteNo="0" devices="tripinfo_veh264" vType="passenger" speedFactor="1.07" vaporized=""/>
    <tripinfo id="veh61" depart="26.00" departLane="-859734514#1_0" departPos="5.81" departSpeed="0.00" departDelay="0.38" arrival="209.00" arrivalLane="-48778526_1" arrivalPos="97.35" arrivalSpeed="11.98" duration="183.00" routeLength="1504.11" waitingTime="11.00" waitingCount="2" stopTime="0.00" timeLoss="42.38" rerouteNo="0" devices="tripinfo_veh61" vType="passenger" speedFactor="0.92" vaporized=""/>