<?xml version="1.0" encoding="UTF-8"?>

<!-- generated on 2025-06-12 12:30:37 by Eclipse SUMO sumo Version 1.22.0
<sumoConfiguration xmlns:xsi="http://www.w3.org/2001/XMLSchema-instance" xsi:noNamespaceSchemaLocation="http://sumo.dlr.de/xsd/sumoConfiguration.xsd">

    <input>
        <net-file value="osm.net.xml"/>
        <route-files value="full.rou.xml, ped.rou.xml, truck.rou.xml"/>
        <additional-files value="osm.poly.xml, vtypes.xml"/>
    </input>

    <output>
        <summary-output value="summary.xml"/>
        <tripinfo-output value="E:\licenta\oras-mediu\2025-06-05-11-45-23\baseline_outputs\tripinfo_baseline_ep3.xml"/>
    </output>

    <processing>
        <ignore-route-errors value="true"/>
        <tls.actuated.jam-threshold value="30"/>
    </processing>

    <routing>
        <device.rerouting.adaptation-steps value="18"/>
        <device.rerouting.adaptation-interval value="10"/>
    </routing>

    <report>
        <verbose value="true"/>
        <duration-log.statistics value="true"/>
        <no-step-log value="true"/>
    </report>

    <traci_server>
        <remote-port value="64453"/>
    </traci_server>

    <gui_only>
        <gui-settings-file value="osm.view.xml"/>
    </gui_only>

</sumoConfiguration>
-->

<tripinfos xmlns:xsi="http://www.w3.org/2001/XMLSchema-instance" xsi:noNamespaceSchemaLocation="http://sumo.dlr.de/xsd/tripinfo_file.xsd">
    <tripinfo id="veh13" depart="8.00" departLane="25379984#0_2" departPos="69.80" departSpeed="0.00" departDelay="0.59" arrival="32.00" arrivalLane="-258551281_1" arrivalPos="67.94" arrivalSpeed="13.88" duration="24.00" routeLength="242.04" waitingTime="0.00" waitingCount="0" stopTime="0.00" timeLoss="5.85" rerouteNo="0" devices="tripinfo_veh13" vType="passenger" speedFactor="1.04" vaporized=""/>
    <tripinfo id="veh25" depart="15.00" departLane="-222605087#0_1" departPos="12.23" departSpeed="0.00" departDelay="0.75" arrival="39.00" arrivalLane="222605087#1_1" arrivalPos="24.01" arrivalSpeed="5.56" duration="24.00" routeLength="136.73" waitingTime="0.00" waitingCount="0" stopTime="0.00" timeLoss="5.73" rerouteNo="0" devices="tripinfo_veh25" vType="passenger" speedFactor="1.15" vaporized=""/>
    <tripinfo id="veh36" depart="21.00" departLane="-647755347#0_1" departPos="27.29" departSpeed="0.00" departDelay="0.48" arrival="50.00" arrivalLane="-1136301818_1" arrivalPos="34.45" arrivalSpeed="13.82" duration="29.00" routeLength="248.35" waitingTime="0.00" waitingCount="0" stopTime="0.00" timeLoss="9.05" rerouteNo="0" devices="tripinfo_veh36" vType="passenger" speedFactor="1.07" vaporized=""/>
    <tripinfo id="veh38" depart="22.00" departLane="-43544202#0_1" departPos="267.37" departSpeed="0.00" departDelay="0.34" arrival="73.00" arrivalLane="43544184#4_1" arrivalPos="17.47" arrivalSpeed="14.02" duration="51.00" routeLength="610.81" waitingTime="0.00" waitingCount="0" stopTime="0.00" timeLoss="6.61" rerouteNo="0" devices="tripinfo_veh38" vType="passenger" speedFactor="1.04" vaporized=""/>
    <tripinfo id="veh40" depart="23.00" departLane="48797771#2_1" departPos="12.91" departSpeed="0.00" departDelay="0.20" arrival="77.00" arrivalLane="-250295513_1" arrivalPos="43.99" arrivalSpeed="14.61" duration="54.00" routeLength="328.03" waitingTime="19.00" waitingCount="1" stopTime="0.00" timeLoss="30.61" rerouteNo="0" devices="tripinfo_veh40" vType="passenger" speedFactor="1.09" vaporized=""/>
    <personinfo id="ped4" depart="20.00" type="DEFAULT_PEDTYPE" speedFactor="0.88" duration="58.00" waitingTime="0.00" timeLoss="6.62" traveltime="58.00">
        <walk depart="20.00" departPos="0.00" arrival="78.00" arrivalPos="49.10" duration="58.00" routeLength="62.76" timeLoss="6.62" maxSpeed="1.22"/>
    </personinfo>
    <tripinfo id="veh14" depart="8.00" departLane="43544179#10_1" departPos="6.98" departSpeed="0.00" departDelay="0.02" arrival="78.00" arrivalLane="43544001#11_1" arrivalPos="49.45" arrivalSpeed="13.22" duration="70.00" routeLength="693.70" waitingTime="0.00" waitingCount="0" stopTime="0.00" timeLoss="14.33" rerouteNo="0" devices="tripinfo_veh14" vType="delivery" speedFactor="0.97" vaporized=""/>
    <tripinfo id="veh113" depart="65.00" departLane="-1136279388_0" departPos="12.74" departSpeed="0.00" departDelay="0.59" arrival="80.00" arrivalLane="-48736625_1" arrivalPos="44.40" arrivalSpeed="7.78" duration="15.00" routeLength="84.63" waitingTime="0.00" waitingCount="0" stopTime="0.00" timeLoss="2.59" rerouteNo="0" devices="tripinfo_veh113" vType="passenger" speedFactor="1.02" vaporized=""/>
    <tripinfo id="veh56" depart="32.00" departLane="143207982#0_1" departPos="20.85" departSpeed="0.00" departDelay="0.08" arrival="83.00" arrivalLane="-48736614#2_1" arrivalPos="59.68" arrivalSpeed="11.90" duration="51.00" routeLength="519.91" waitingTime="0.00" waitingCount="0" stopTime="0.00" timeLoss="7.65" rerouteNo="0" devices="tripinfo_veh56" vType="passenger" speedFactor="0.91" vaporized=""/>
    <personinfo id="ped10" depart="50.00" type="DEFAULT_PEDTYPE" speedFactor="0.83" duration="39.00" waitingTime="0.00" timeLoss="4.10" traveltime="39.00">
        <walk depart="50.00" departPos="0.00" arrival="89.00" arrivalPos="8.09" duration="39.00" routeLength="40.35" timeLoss="4.10" maxSpeed="1.16"/>
    </personinfo>
    <tripinfo id="veh91" depart="52.00" departLane="48736610#0_1" departPos="13.95" departSpeed="0.00" departDelay="0.13" arrival="92.00" arrivalLane="48736624#3_1" arrivalPos="19.82" arrivalSpeed="10.99" duration="40.00" routeLength="413.40" waitingTime="0.00" waitingCount="0" stopTime="0.00" timeLoss="7.57" rerouteNo="0" devices="tripinfo_veh91" vType="passenger" speedFactor="0.97" vaporized=""/>
    <tripinfo id="veh22" depart="13.00" departLane="-258551321_1" departPos="35.33" departSpeed="0.00" departDelay="0.46" arrival="121.00" arrivalLane="48778510#1_1" arrivalPos="102.69" arrivalSpeed="14.30" duration="108.00" routeLength="1227.29" waitingTime="0.00" waitingCount="0" stopTime="0.00" timeLoss="19.12" rerouteNo="0" devices="tripinfo_veh22" vType="passenger" speedFactor="1.03" vaporized=""/>
    <tripinfo id="veh24" depart="14.00" departLane="-43546053#2_1" departPos="152.75" departSpeed="0.00" departDelay="0.32" arrival="121.00" arrivalLane="-43544184#4_1" arrivalPos="17.47" arrivalSpeed="8.73" duration="107.00" routeLength="1045.24" waitingTime="1.00" waitingCount="1" stopTime="0.00" timeLoss="20.17" rerouteNo="0" devices="tripinfo_veh24" vType="passenger" speedFactor="0.89" vaporized=""/>
    <tripinfo id="veh31" depart="18.00" departLane="-671642327_0" departPos="13.76" departSpeed="0.00" departDelay="0.33" arrival="123.00" arrivalLane="-40330575#4_1" arrivalPos="66.51" arrivalSpeed="11.23" duration="105.00" routeLength="765.51" waitingTime="0.00" waitingCount="0" stopTime="0.00" timeLoss="23.57" rerouteNo="0" devices="tripinfo_veh31" vType="motorcycle" speedFactor="1.02" vaporized=""/>
    <tripinfo id="veh69" depart="40.00" departLane="33909936#5_1" departPos="33.41" departSpeed="0.00" departDelay="0.67" arrival="124.00" arrivalLane="43546105#0_1" arrivalPos="198.99" arrivalSpeed="12.79" duration="84.00" routeLength="872.52" waitingTime="0.00" waitingCount="0" stopTime="0.00" timeLoss="16.16" rerouteNo="0" devices="tripinfo_veh69" vType="passenger" speedFactor="0.98" vaporized=""/>
    <tripinfo id="veh140" depart="80.00" departLane="-43546449#0_1" departPos="41.69" departSpeed="0.00" departDelay="0.20" arrival="126.00" arrivalLane="-492965073#7_1" arrivalPos="34.78" arrivalSpeed="14.44" duration="46.00" routeLength="398.62" waitingTime="2.00" waitingCount="1" stopTime="0.00" timeLoss="16.67" rerouteNo="0" devices="tripinfo_veh140" vType="passenger" speedFactor="1.06" vaporized=""/>
    <tripinfo id="veh39" depart="23.00" departLane="174818018#0_0" departPos="490.53" departSpeed="0.00" departDelay="0.77" arrival="132.00" arrivalLane="48736666#1_1" arrivalPos="12.12" arrivalSpeed="9.60" duration="109.00" routeLength="615.41" waitingTime="40.00" waitingCount="2" stopTime="0.00" timeLoss="57.92" rerouteNo="0" devices="tripinfo_veh39" vType="emergency" speedFactor="1.00" vaporized=""/>
    <tripinfo id="veh45" depart="26.00" departLane="-40306162#1_1" departPos="16.05" departSpeed="0.00" departDelay="0.35" arrival="133.00" arrivalLane="40330575#1_1" arrivalPos="3.63" arrivalSpeed="13.86" duration="107.00" routeLength="1024.36" waitingTime="9.00" waitingCount="1" stopTime="0.00" timeLoss="32.54" rerouteNo="0" devices="tripinfo_veh45" vType="passenger" speedFactor="1.05" vaporized=""/>
    <tripinfo id="veh7" depart="4.00" departLane="174818022#2_0" departPos="71.94" departSpeed="0.00" departDelay="0.01" arrival="137.00" arrivalLane="-492965073#4_1" arrivalPos="201.94" arrivalSpeed="13.35" duration="133.00" routeLength="1076.58" waitingTime="28.00" waitingCount="1" stopTime="0.00" timeLoss="49.81" rerouteNo="0" devices="tripinfo_veh7" vType="delivery" speedFactor="1.05" vaporized=""/>
    <tripinfo id="veh180" depart="103.00" departLane="-945793490#0_1" departPos="8.94" departSpeed="0.00" departDelay="0.40" arrival="137.00" arrivalLane="222605084#3_1" arrivalPos="1.85" arrivalSpeed="5.87" duration="34.00" routeLength="160.07" waitingTime="0.00" waitingCount="0" stopTime="0.00" timeLoss="6.24" rerouteNo="0" devices="tripinfo_veh180" vType="bicycle" speedFactor="1.07" vaporized=""/>
    <tripinfo id="veh62" depart="36.00" departLane="48778431#4_2" departPos="5.23" departSpeed="0.00" departDelay="0.66" arrival="145.00" arrivalLane="43544001#9_1" arrivalPos="174.12" arrivalSpeed="13.65" duration="109.00" routeLength="1218.76" waitingTime="0.00" waitingCount="0" stopTime="0.00" timeLoss="19.27" rerouteNo="0" devices="tripinfo_veh62" vType="passenger" speedFactor="1.03" vaporized=""/>
    <tripinfo id="veh86" depart="51.00" departLane="250295383#6_1" departPos="3.76" departSpeed="0.00" departDelay="1.98" arrival="145.00" arrivalLane="48778481#8_2" arrivalPos="12.21" arrivalSpeed="13.51" duration="94.00" routeLength="951.39" waitingTime="0.00" waitingCount="0" stopTime="0.00" timeLoss="21.82" rerouteNo="0" devices="tripinfo_veh86" vType="delivery" speedFactor="1.03" vaporized=""/>
    <tripinfo id="veh187" depart="107.00" departLane="-859734514#1_0" departPos="28.42" departSpeed="0.00" departDelay="0.41" arrival="146.00" arrivalLane="48778508#3_1" arrivalPos="2.38" arrivalSpeed="9.59" duration="39.00" routeLength="157.48" waitingTime="3.00" waitingCount="1" stopTime="0.00" timeLoss="11.04" rerouteNo="0" devices="tripinfo_veh187" vType="delivery" speedFactor="0.93" vaporized=""/>
    <tripinfo id="veh46" depart="27.00" departLane="-43544179#11_1" departPos="13.08" departSpeed="0.00" departDelay="0.78" arrival="148.00" arrivalLane="43573547#5_1" arrivalPos="56.54" arrivalSpeed="11.42" duration="121.00" routeLength="1130.76" waitingTime="19.00" waitingCount="1" stopTime="0.00" timeLoss="37.64" rerouteNo="0" devices="tripinfo_veh46" vType="motorcycle" speedFactor="1.00" vaporized=""/>
    <tripinfo id="veh120" depart="69.00" departLane="-48778449#0_1" departPos="12.26" departSpeed="0.00" departDelay="0.60" arrival="149.00" arrivalLane="273836978#1_1" arrivalPos="68.56" arrivalSpeed="12.80" duration="80.00" routeLength="805.36" waitingTime="0.00" waitingCount="0" stopTime="0.00" timeLoss="17.87" rerouteNo="0" devices="tripinfo_veh120" vType="passenger" speedFactor="0.97" vaporized=""/>
    <tripinfo id="veh192" depart="110.00" departLane="-48778494#1_1" departPos="3.46" departSpeed="0.00" departDelay="0.56" arrival="149.00" arrivalLane="48778508#5_1" arrivalPos="31.95" arrivalSpeed="14.92" duration="39.00" routeLength="426.23" waitingTime="0.00" waitingCount="0" stopTime="0.00" timeLoss="8.86" rerouteNo="0" devices="tripinfo_veh192" vType="delivery" speedFactor="1.08" vaporized=""/>
    <tripinfo id="veh92" depart="53.00" departLane="1135772296#1_0" departPos="2.37" departSpeed="0.00" departDelay="0.56" arrival="151.00" arrivalLane="-250295379_1" arrivalPos="126.33" arrivalSpeed="6.42" duration="98.00" routeLength="575.60" waitingTime="0.00" waitingCount="0" stopTime="0.00" timeLoss="9.75" rerouteNo="0" devices="tripinfo_veh92" vType="bicycle" speedFactor="1.18" vaporized=""/>
    <tripinfo id="veh98" depart="56.00" departLane="143207979#4_1" departPos="22.21" departSpeed="0.00" departDelay="0.14" arrival="151.00" arrivalLane="647998063#3_1" arrivalPos="114.77" arrivalSpeed="14.01" duration="95.00" routeLength="1043.18" waitingTime="0.00" waitingCount="0" stopTime="0.00" timeLoss="18.89" rerouteNo="0" devices="tripinfo_veh98" vType="passenger" speedFactor="1.02" vaporized=""/>
    <tripinfo id="veh59" depart="34.00" departLane="40304754#4_1" departPos="22.91" departSpeed="0.00" departDelay="0.37" arrival="152.00" arrivalLane="40330575#4_1" arrivalPos="66.37" arrivalSpeed="12.77" duration="118.00" routeLength="1179.59" waitingTime="7.00" waitingCount="1" stopTime="0.00" timeLoss="27.90" rerouteNo="0" devices="tripinfo_veh59" vType="delivery" speedFactor="0.96" vaporized=""/>
    <tripinfo id="veh78" depart="45.00" departLane="-859735387#1_0" departPos="21.08" departSpeed="0.00" departDelay="0.54" arrival="152.00" arrivalLane="-43544197#4_1" arrivalPos="41.55" arrivalSpeed="15.14" duration="107.00" routeLength="1064.13" waitingTime="0.00" waitingCount="0" stopTime="0.00" timeLoss="22.41" rerouteNo="0" devices="tripinfo_veh78" vType="passenger" speedFactor="1.10" vaporized=""/>
    <tripinfo id="veh23" depart="14.00" departLane="492965073#6_1" departPos="0.46" departSpeed="0.00" departDelay="0.89" arrival="153.00" arrivalLane="43546519#2_1" arrivalPos="8.00" arrivalSpeed="12.66" duration="139.00" routeLength="1034.42" waitingTime="46.00" waitingCount="1" stopTime="0.00" timeLoss="70.53" rerouteNo="0" devices="tripinfo_veh23" vType="passenger" speedFactor="1.13" vaporized=""/>
    <tripinfo id="veh60" depart="35.00" departLane="-43546039#1_1" departPos="18.63" departSpeed="0.00" departDelay="0.80" arrival="153.00" arrivalLane="-48778516_1" arrivalPos="192.95" arrivalSpeed="13.78" duration="118.00" routeLength="1310.43" waitingTime="0.00" waitingCount="0" stopTime="0.00" timeLoss="23.31" rerouteNo="0" devices="tripinfo_veh60" vType="passenger" speedFactor="1.06" vaporized=""/>
    <tripinfo id="veh201" depart="115.00" departLane="48797771#2_1" departPos="15.42" departSpeed="0.00" departDelay="0.43" arrival="153.00" arrivalLane="-48736637_1" arrivalPos="17.08" arrivalSpeed="9.31" duration="38.00" routeLength="343.57" waitingTime="0.00" waitingCount="0" stopTime="0.00" timeLoss="12.40" rerouteNo="0" devices="tripinfo_veh201" vType="passenger" speedFactor="1.07" vaporized=""/>
    <tripinfo id="veh19" depart="11.00" departLane="-92198453#2_1" departPos="109.35" departSpeed="0.00" departDelay="0.17" arrival="155.00" arrivalLane="-43544624#1_1" arrivalPos="93.66" arrivalSpeed="13.85" duration="144.00" routeLength="1724.42" waitingTime="0.00" waitingCount="0" stopTime="0.00" timeLoss="18.61" rerouteNo="0" devices="tripinfo_veh19" vType="passenger" speedFactor="1.01" vaporized=""/>
    <tripinfo id="veh64" depart="37.00" departLane="48778431#4_2" departPos="119.83" departSpeed="0.00" departDelay="0.52" arrival="156.00" arrivalLane="-48778525#1_1" arrivalPos="14.99" arrivalSpeed="10.66" duration="119.00" routeLength="1077.92" waitingTime="14.00" waitingCount="2" stopTime="0.00" timeLoss="43.48" rerouteNo="0" devices="tripinfo_veh64" vType="passenger" speedFactor="1.09" vaporized=""/>
    <tripinfo id="veh41" depart="24.00" departLane="-48778500#1_1" departPos="79.27" departSpeed="0.00" departDelay="0.63" arrival="157.00" arrivalLane="-43544179#9_1" arrivalPos="251.14" arrivalSpeed="12.88" duration="133.00" routeLength="1416.02" waitingTime="0.00" waitingCount="0" stopTime="0.00" timeLoss="20.45" rerouteNo="0" devices="tripinfo_veh41" vType="passenger" speedFactor="0.95" vaporized=""/>
    <tripinfo id="veh49" depart="28.00" departLane="-492965073#9_2" departPos="45.29" departSpeed="0.00" departDelay="0.07" arrival="162.00" arrivalLane="40236164_1" arrivalPos="161.97" arrivalSpeed="13.46" duration="134.00" routeLength="1297.61" waitingTime="10.00" waitingCount="2" stopTime="0.00" timeLoss="34.38" rerouteNo="0" devices="tripinfo_veh49" vType="delivery" speedFactor="0.98" vaporized=""/>
    <tripinfo id="veh141" depart="81.00" departLane="48778446#0_1" departPos="48.97" departSpeed="0.00" departDelay="0.63" arrival="163.00" arrivalLane="43546343#1_1" arrivalPos="44.30" arrivalSpeed="12.82" duration="82.00" routeLength="925.63" waitingTime="0.00" waitingCount="0" stopTime="0.00" timeLoss="10.84" rerouteNo="0" devices="tripinfo_veh141" vType="passenger" speedFactor="0.96" vaporized=""/>
    <tripinfo id="veh227" depart="130.00" departLane="-1136289991_1" departPos="15.73" departSpeed="0.00" departDelay="0.61" arrival="164.00" arrivalLane="-43547017#5_1" arrivalPos="24.30" arrivalSpeed="10.89" duration="34.00" routeLength="286.09" waitingTime="0.00" waitingCount="0" stopTime="0.00" timeLoss="8.37" rerouteNo="0" devices="tripinfo_veh227" vType="passenger" speedFactor="0.95" vaporized=""/>
    <tripinfo id="veh76" depart="44.00" departLane="48778502#0_1" departPos="13.92" departSpeed="0.00" departDelay="0.68" arrival="166.00" arrivalLane="-1250915721#2_1" arrivalPos="19.96" arrivalSpeed="4.53" duration="122.00" routeLength="1122.32" waitingTime="0.00" waitingCount="0" stopTime="0.00" timeLoss="14.13" rerouteNo="0" devices="tripinfo_veh76" vType="passenger" speedFactor="0.91" vaporized=""/>
    <tripinfo id="veh3" depart="2.00" departLane="48797774_1" departPos="58.75" departSpeed="0.00" departDelay="0.29" arrival="170.00" arrivalLane="-222609002#0_1" arrivalPos="115.34" arrivalSpeed="14.94" duration="168.00" routeLength="1482.07" waitingTime="39.00" waitingCount="1" stopTime="0.00" timeLoss="65.30" rerouteNo="0" devices="tripinfo_veh3" vType="passenger" speedFactor="1.08" vaporized=""/>
    <tripinfo id="veh110" depart="63.00" departLane="176279225#4_1" departPos="54.82" departSpeed="0.00" departDelay="0.30" arrival="172.00" arrivalLane="43546648#0_1" arrivalPos="105.45" arrivalSpeed="13.32" duration="109.00" routeLength="1133.07" waitingTime="0.00" waitingCount="0" stopTime="0.00" timeLoss="24.52" rerouteNo="0" devices="tripinfo_veh110" vType="passenger" speedFactor="1.01" vaporized=""/>
    <tripinfo id="veh114" depart="65.00" departLane="-43573547#7_1" departPos="30.14" departSpeed="0.00" departDelay="0.02" arrival="172.00" arrivalLane="40236203#0_1" arrivalPos="83.35" arrivalSpeed="14.37" duration="107.00" routeLength="1134.27" waitingTime="13.00" waitingCount="1" stopTime="0.00" timeLoss="28.58" rerouteNo="0" devices="tripinfo_veh114" vType="passenger" speedFactor="1.06" vaporized=""/>
    <tripinfo id="veh136" depart="78.00" departLane="-222609002#4_1" departPos="41.63" departSpeed="0.00" departDelay="0.48" arrival="174.00" arrivalLane="-40330583#0_0" arrivalPos="91.11" arrivalSpeed="27.12" duration="96.00" routeLength="1289.48" waitingTime="0.00" waitingCount="0" stopTime="0.00" timeLoss="20.01" rerouteNo="0" devices="tripinfo_veh136" vType="passenger" speedFactor="1.13" vaporized=""/>
    <tripinfo id="veh15" depart="9.00" departLane="-48797769_1" departPos="12.64" departSpeed="0.00" departDelay="0.45" arrival="179.00" arrivalLane="48736656#0_1" arrivalPos="64.41" arrivalSpeed="13.30" duration="170.00" routeLength="1264.93" waitingTime="49.00" waitingCount="2" stopTime="0.00" timeLoss="74.18" rerouteNo="0" devices="tripinfo_veh15" vType="emergency" speedFactor="1.00" vaporized=""/>
    <tripinfo id="veh243" depart="140.00" departLane="-43546789#0_1" departPos="13.25" departSpeed="0.00" departDelay="1.49" arrival="181.00" arrivalLane="-43573478_1" arrivalPos="180.41" arrivalSpeed="12.87" duration="41.00" routeLength="354.11" waitingTime="0.00" waitingCount="0" stopTime="0.00" timeLoss="10.83" rerouteNo="0" devices="tripinfo_veh243" vType="emergency" speedFactor="1.00" vaporized=""/>
    <tripinfo id="veh118" depart="68.00" departLane="43546064#2_1" departPos="27.82" departSpeed="0.00" departDelay="0.74" arrival="182.00" arrivalLane="48788485#5_2" arrivalPos="101.99" arrivalSpeed="15.60" duration="114.00" routeLength="1421.16" waitingTime="0.00" waitingCount="0" stopTime="0.00" timeLoss="27.14" rerouteNo="0" devices="tripinfo_veh118" vType="passenger" speedFactor="1.21" vaporized=""/>
    <tripinfo id="veh54" depart="31.00" departLane="1205541342_1" departPos="9.16" departSpeed="0.00" departDelay="0.22" arrival="184.00" arrivalLane="-43546343#1_1" arrivalPos="46.32" arrivalSpeed="13.49" duration="153.00" routeLength="1079.19" waitingTime="51.00" waitingCount="1" stopTime="0.00" timeLoss="66.84" rerouteNo="0" devices="tripinfo_veh54" vType="delivery" speedFactor="0.99" vaporized=""/>
    <tripinfo id="veh0" depart="0.00" departLane="383582501_0" departPos="56.53" departSpeed="0.00" departDelay="0.00" arrival="185.00" arrivalLane="222605084#7_1" arrivalPos="41.65" arrivalSpeed="4.39" duration="185.00" routeLength="1536.73" waitingTime="1.00" waitingCount="1" stopTime="0.00" timeLoss="39.26" rerouteNo="0" devices="tripinfo_veh0" vType="motorcycle" speedFactor="0.98" vaporized=""/>
    <tripinfo id="veh161" depart="92.00" departLane="-258551297#0_0" departPos="3.56" departSpeed="0.00" departDelay="0.23" arrival="185.00" arrivalLane="-48736632#1_1" arrivalPos="49.82" arrivalSpeed="14.60" duration="93.00" routeLength="1060.61" waitingTime="2.00" waitingCount="1" stopTime="0.00" timeLoss="22.66" rerouteNo="0" devices="tripinfo_veh161" vType="passenger" speedFactor="1.15" vaporized=""/>
    <tripinfo id="veh8" depart="5.00" departLane="43544138#0_1" departPos="28.36" departSpeed="0.00" departDelay="0.44" arrival="186.00" arrivalLane="859734514#0_0" arrivalPos="30.02" arrivalSpeed="4.52" duration="181.00" routeLength="1592.50" waitingTime="25.00" waitingCount="1" stopTime="0.00" timeLoss="48.24" rerouteNo="0" devices="tripinfo_veh8" vType="passenger" speedFactor="0.92" vaporized=""/>
    <tripinfo id="veh66" depart="38.00" departLane="-33910068#0_1" departPos="41.11" departSpeed="0.00" departDelay="0.38" arrival="188.00" arrivalLane="-48778441#0_1" arrivalPos="36.99" arrivalSpeed="13.85" duration="150.00" routeLength="1303.78" waitingTime="32.00" waitingCount="1" stopTime="0.00" timeLoss="55.61" rerouteNo="0" devices="tripinfo_veh66" vType="passenger" speedFactor="1.02" vaporized=""/>
    <tripinfo id="veh210" depart="120.00" departLane="-43544588#1_1" departPos="9.32" departSpeed="0.00" departDelay="0.30" arrival="188.00" arrivalLane="-143207979#1_1" arrivalPos="43.59" arrivalSpeed="13.32" duration="68.00" routeLength="715.14" waitingTime="0.00" waitingCount="0" stopTime="0.00" timeLoss="12.02" rerouteNo="0" devices="tripinfo_veh210" vType="passenger" speedFactor="0.96" vaporized=""/>
    <tripinfo id="veh100" depart="57.00" departLane="48797767#0_1" departPos="18.08" departSpeed="0.00" departDelay="0.00" arrival="196.00" arrivalLane="48736612#1_1" arrivalPos="56.12" arrivalSpeed="12.14" duration="139.00" routeLength="1228.33" waitingTime="14.00" waitingCount="2" stopTime="0.00" timeLoss="34.33" rerouteNo="0" devices="tripinfo_veh100" vType="passenger" speedFactor="0.89" vaporized=""/>
    <tripinfo id="veh89" depart="51.00" departLane="-43546789#1_1" departPos="0.68" departSpeed="0.00" departDelay="0.27" arrival="197.00" arrivalLane="-945793485#1_1" arrivalPos="18.53" arrivalSpeed="12.23" duration="146.00" routeLength="1394.05" waitingTime="0.00" waitingCount="0" stopTime="0.00" timeLoss="32.03" rerouteNo="0" devices="tripinfo_veh89" vType="delivery" speedFactor="1.01" vaporized=""/>
    <tripinfo id="veh101" depart="58.00" departLane="1136119745_1" departPos="15.94" departSpeed="0.00" departDelay="0.43" arrival="198.00" arrivalLane="48778505#2_1" arrivalPos="58.26" arrivalSpeed="13.37" duration="140.00" routeLength="1318.73" waitingTime="9.00" waitingCount="1" stopTime="0.00" timeLoss="35.88" rerouteNo="0" devices="tripinfo_veh101" vType="passenger" speedFactor="1.03" vaporized=""/>
    <tripinfo id="veh132" depart="76.00" departLane="43573547#5_1" departPos="52.18" departSpeed="0.00" departDelay="0.76" arrival="200.00" arrivalLane="48797773_1" arrivalPos="23.80" arrivalSpeed="15.13" duration="124.00" routeLength="1274.46" waitingTime="20.00" waitingCount="1" stopTime="0.00" timeLoss="40.64" rerouteNo="0" devices="tripinfo_veh132" vType="passenger" speedFactor="1.13" vaporized=""/>
    <tripinfo id="veh70" depart="40.00" departLane="-43546039#2_1" departPos="13.50" departSpeed="0.00" departDelay="0.10" arrival="201.00" arrivalLane="-43573478_1" arrivalPos="180.41" arrivalSpeed="13.80" duration="161.00" routeLength="1851.62" waitingTime="0.00" waitingCount="0" stopTime="0.00" timeLoss="24.34" rerouteNo="0" devices="tripinfo_veh70" vType="passenger" speedFactor="1.01" vaporized=""/>
    <tripinfo id="veh166" depart="95.00" departLane="33913538#4_1" departPos="25.93" departSpeed="0.00" departDelay="0.38" arrival="203.00" arrivalLane="-40334245#0_1" arrivalPos="85.83" arrivalSpeed="14.11" duration="108.00" routeLength="945.14" waitingTime="18.00" waitingCount="2" stopTime="0.00" timeLoss="40.56" rerouteNo="0" devices="tripinfo_veh166" vType="passenger" speedFactor="1.03" vaporized=""/>
    <tripinfo id="veh97" depart="56.00" departLane="223942064#1_0" departPos="0.32" departSpeed="0.00" departDelay="0.71" arrival="204.00" arrivalLane="-40299739#0_1" arrivalPos="93.05" arrivalSpeed="13.93" duration="148.00" routeLength="1858.79" waitingTime="0.00" waitingCount="0" stopTime="0.00" timeLoss="14.99" rerouteNo="0" devices="tripinfo_veh97" vType="passenger" speedFactor="1.03" vaporized=""/>
    <tripinfo id="veh169" depart="97.00" departLane="-1136289989_1" departPos="1.71" departSpeed="0.00" departDelay="0.67" arrival="204.00" arrivalLane="-48778501_1" arrivalPos="136.18" arrivalSpeed="13.04" duration="107.00" routeLength="1165.31" waitingTime="0.00" waitingCount="0" stopTime="0.00" timeLoss="17.00" rerouteNo="0" devices="tripinfo_veh169" vType="emergency" speedFactor="1.00" vaporized=""/>
    <tripinfo id="veh230" depart="132.00" departLane="48797767#0_1" departPos="19.26" departSpeed="0.00" departDelay="0.90" arrival="204.00" arrivalLane="250295383#0_1" arrivalPos="29.94" arrivalSpeed="13.86" duration="72.00" routeLength="761.04" waitingTime="0.00" waitingCount="0" stopTime="0.00" timeLoss="13.63" rerouteNo="0" devices="tripinfo_veh230" vType="delivery" speedFactor="1.01" vaporized=""/>
    <tripinfo id="veh74" depart="43.00" departLane="40236232#1_1" departPos="1.27" departSpeed="0.00" departDelay="0.82" arrival="205.00" arrivalLane="-48736638#2_1" arrivalPos="32.61" arrivalSpeed="13.35" duration="162.00" routeLength="1116.98" waitingTime="42.00" waitingCount="1" stopTime="0.00" timeLoss="80.42" rerouteNo="0" devices="tripinfo_veh74" vType="passenger" speedFactor="1.06" vaporized=""/>
    <tripinfo id="veh215" depart="123.00" departLane="256684296_0" departPos="73.44" departSpeed="0.00" departDelay="0.45" arrival="206.00" arrivalLane="-48797772_1" arrivalPos="103.62" arrivalSpeed="13.40" duration="83.00" routeLength="932.99" waitingTime="0.00" waitingCount="0" stopTime="0.00" timeLoss="11.75" rerouteNo="0" devices="tripinfo_veh215" vType="passenger" speedFactor="1.00" vaporized=""/>
    <tripinfo id="veh336" depart="192.00" departLane="-40269009#2_1" departPos="43.33" departSpeed="0.00" departDelay="0.48" arrival="206.00" arrivalLane="48778478#0_1" arrivalPos="0.20" arrivalSpeed="12.68" duration="14.00" routeLength="115.54" waitingTime="0.00" waitingCount="0" stopTime="0.00" timeLoss="5.26" rerouteNo="0" devices="tripinfo_veh336" vType="passenger" speedFactor="1.01" vaporized=""/>
    <tripinfo id="veh194" depart="111.00" departLane="43546460#7_1" departPos="89.93" departSpeed="0.00" departDelay="0.42" arrival="207.00" arrivalLane="996489799#0_0" arrivalPos="0.20" arrivalSpeed="5.00" duration="96.00" routeLength="1121.43" waitingTime="0.00" waitingCount="0" stopTime="0.00" timeLoss="14.10" rerouteNo="0" devices="tripinfo_veh194" vType="passenger" speedFactor="1.04" vaporized=""/>
    <tripinfo id="veh229" depart="131.00" departLane="1136119745_1" departPos="2.86" departSpeed="0.00" departDelay="0.47" arrival="207.00" arrivalLane="353939570#8_2" arrivalPos="81.94" arrivalSpeed="14.01" duration="76.00" routeLength="661.28" waitingTime="2.00" waitingCount="1" stopTime="0.00" timeLoss="20.45" rerouteNo="0" devices="tripinfo_veh229" vType="passenger" speedFactor="1.05" vaporized=""/>
    <tripinfo id="veh71" depart="41.00" departLane="383582514_1" departPos="118.50" departSpeed="0.00" departDelay="0.53" arrival="210.00" arrivalLane="470210923#3_1" arrivalPos="33.18" arrivalSpeed="12.57" duration="169.00" routeLength="1716.88" waitingTime="0.00" waitingCount="0" stopTime="0.00" timeLoss="29.06" rerouteNo="0" devices="tripinfo_veh71" vType="motorcycle" speedFactor="0.94" vaporized=""/>
    <tripinfo id="veh57" depart="33.00" departLane="33913538#6_1" departPos="18.59" departSpeed="0.00" departDelay="0.51" arrival="213.00" arrivalLane="-1136301812#0_1" arrivalPos="36.85" arrivalSpeed="12.20" duration="180.00" routeLength="1693.61" waitingTime="18.00" waitingCount="1" stopTime="0.00" timeLoss="47.73" rerouteNo="0" devices="tripinfo_veh57" vType="passenger" speedFactor="0.95" vaporized=""/>
    <tripinfo id="veh221" depart="126.00" departLane="250295379_1" departPos="72.06" departSpeed="0.00" departDelay="0.03" arrival="213.00" arrivalLane="-48778457#1_1" arrivalPos="25.26" arrivalSpeed="10.86" duration="87.00" routeLength="684.33" waitingTime="14.00" waitingCount="1" stopTime="0.00" timeLoss="29.80" rerouteNo="0" devices="tripinfo_veh221" vType="motorcycle" speedFactor="0.93" vaporized=""/>