<?xml version="1.0" encoding="UTF-8"?>

<!-- generated on 2025-06-12 12:32:19 by Eclipse SUMO sumo Version 1.22.0
<sumoConfiguration xmlns:xsi="http://www.w3.org/2001/XMLSchema-instance" xsi:noNamespaceSchemaLocation="http://sumo.dlr.de/xsd/sumoConfiguration.xsd">

    <input>
        <net-file value="osm.net.xml"/>
        <route-files value="full.rou.xml, ped.rou.xml, truck.rou.xml"/>
        <additional-files value="osm.poly.xml, vtypes.xml"/>
    </input>

    <output>
        <summary-output value="summary.xml"/>
        <tripinfo-output value="E:\licenta\oras-mediu\2025-06-05-11-45-23\baseline_outputs\tripinfo_baseline_ep12.xml"/>
    </output>

    <processing>
        <ignore-route-errors value="true"/>
        <tls.actuated.jam-threshold value="30"/>
    </processing>

    <routing>
        <device.rerouting.adaptation-steps value="18"/>
        <device.rerouting.adaptation-interval value="10"/>
    </routing>

    <report>
        <verbose value="true"/>
        <duration-log.statistics value="true"/>
        <no-step-log value="true"/>
    </report>

    <traci_server>
        <remote-port value="64505"/>
    </traci_server>

    <gui_only>
        <gui-settings-file value="osm.view.xml"/>
    </gui_only>

</sumoConfiguration>
-->

<tripinfos xmlns:xsi="http://www.w3.org/2001/XMLSchema-instance" xsi:noNamespaceSchemaLocation="http://sumo.dlr.de/xsd/tripinfo_file.xsd">
    <tripinfo id="veh2" depart="2.00" departLane="40304754#2_1" departPos="49.81" departSpeed="0.00" departDelay="0.80" arrival="34.00" arrivalLane="-43546789#1_1" arrivalPos="47.64" arrivalSpeed="13.81" duration="32.00" routeLength="360.03" waitingTime="0.00" waitingCount="0" stopTime="0.00" timeLoss="7.09" rerouteNo="0" devices="tripinfo_veh2" vType="passenger" speedFactor="1.08" vaporized=""/>
    <tripinfo id="veh67" depart="41.00" departLane="-995052775_0" departPos="26.62" departSpeed="0.00" departDelay="0.80" arrival="61.00" arrivalLane="859738989#0_0" arrivalPos="0.20" arrivalSpeed="5.01" duration="20.00" routeLength="195.61" waitingTime="0.00" waitingCount="0" stopTime="0.00" timeLoss="3.59" rerouteNo="0" devices="tripinfo_veh67" vType="passenger" speedFactor="0.98" vaporized=""/>
    <tripinfo id="veh49" depart="30.00" departLane="1136301812#0_1" departPos="29.40" departSpeed="0.00" departDelay="0.60" arrival="73.00" arrivalLane="48778475#0_1" arrivalPos="50.36" arrivalSpeed="15.07" duration="43.00" routeLength="374.05" waitingTime="0.00" waitingCount="0" stopTime="0.00" timeLoss="15.01" rerouteNo="0" devices="tripinfo_veh49" vType="passenger" speedFactor="1.12" vaporized=""/>
    <tripinfo id="veh58" depart="35.00" departLane="-40314876_1" departPos="8.90" departSpeed="0.00" departDelay="0.20" arrival="82.00" arrivalLane="40314876_1" arrivalPos="38.09" arrivalSpeed="14.64" duration="47.00" routeLength="498.04" waitingTime="0.00" waitingCount="0" stopTime="0.00" timeLoss="10.34" rerouteNo="0" devices="tripinfo_veh58" vType="passenger" speedFactor="1.06" vaporized=""/>
    <tripinfo id="veh14" depart="9.00" departLane="859732802#1_0" departPos="116.17" departSpeed="0.00" departDelay="0.60" arrival="89.00" arrivalLane="-43573573#0_1" arrivalPos="20.40" arrivalSpeed="12.63" duration="80.00" routeLength="851.23" waitingTime="0.00" waitingCount="0" stopTime="0.00" timeLoss="13.16" rerouteNo="0" devices="tripinfo_veh14" vType="emergency" speedFactor="1.00" vaporized=""/>
    <tripinfo id="veh5" depart="3.00" departLane="33909840#0_1" departPos="51.86" departSpeed="0.00" departDelay="0.00" arrival="106.00" arrivalLane="-40299241#1_1" arrivalPos="23.44" arrivalSpeed="11.32" duration="103.00" routeLength="1068.58" waitingTime="0.00" waitingCount="0" stopTime="0.00" timeLoss="21.89" rerouteNo="0" devices="tripinfo_veh5" vType="passenger" speedFactor="1.02" vaporized=""/>
    <personinfo id="ped3" depart="15.00" type="DEFAULT_PEDTYPE" speedFactor="1.11" duration="93.00" waitingTime="0.00" timeLoss="10.23" traveltime="93.00">
        <walk depart="15.00" departPos="0.00" arrival="108.00" arrivalPos="17.31" duration="93.00" routeLength="127.89" timeLoss="10.23" maxSpeed="1.55"/>
    </personinfo>
    <tripinfo id="veh62" depart="38.00" departLane="43546935#2_1" departPos="0.52" departSpeed="0.00" departDelay="0.80" arrival="110.00" arrivalLane="-43544197#7_1" arrivalPos="49.46" arrivalSpeed="14.98" duration="72.00" routeLength="722.47" waitingTime="0.00" waitingCount="0" stopTime="0.00" timeLoss="19.70" rerouteNo="0" devices="tripinfo_veh62" vType="passenger" speedFactor="1.09" vaporized=""/>
    <tripinfo id="veh173" depart="104.00" departLane="-48736621#2_1" departPos="6.53" departSpeed="0.00" departDelay="0.20" arrival="120.00" arrivalLane="143207982#2_1" arrivalPos="8.52" arrivalSpeed="15.71" duration="16.00" routeLength="149.83" waitingTime="0.00" waitingCount="0" stopTime="0.00" timeLoss="5.76" rerouteNo="0" devices="tripinfo_veh173" vType="passenger" speedFactor="1.17" vaporized=""/>
    <tripinfo id="veh136" depart="82.00" departLane="48736610#2_1" departPos="45.29" departSpeed="0.00" departDelay="0.40" arrival="121.00" arrivalLane="143207982#0_1" arrivalPos="45.05" arrivalSpeed="13.38" duration="39.00" routeLength="145.26" waitingTime="20.00" waitingCount="1" stopTime="0.00" timeLoss="28.13" rerouteNo="0" devices="tripinfo_veh136" vType="passenger" speedFactor="0.98" vaporized=""/>
    <tripinfo id="veh92" depart="56.00" departLane="-43544001#5_1" departPos="16.17" departSpeed="0.00" departDelay="0.80" arrival="123.00" arrivalLane="-43546039#0_1" arrivalPos="195.13" arrivalSpeed="15.35" duration="67.00" routeLength="789.77" waitingTime="0.00" waitingCount="0" stopTime="0.00" timeLoss="14.07" rerouteNo="0" devices="tripinfo_veh92" vType="passenger" speedFactor="1.13" vaporized=""/>
    <tripinfo id="veh95" depart="57.00" departLane="353939585#2_1" departPos="17.68" departSpeed="0.00" departDelay="0.00" arrival="125.00" arrivalLane="48778508#0_1" arrivalPos="11.33" arrivalSpeed="10.95" duration="68.00" routeLength="603.98" waitingTime="3.00" waitingCount="1" stopTime="0.00" timeLoss="18.81" rerouteNo="0" devices="tripinfo_veh95" vType="motorcycle" speedFactor="0.94" vaporized=""/>
    <tripinfo id="veh38" depart="23.00" departLane="40330575#2_1" departPos="26.11" departSpeed="0.00" departDelay="0.20" arrival="131.00" arrivalLane="-354259933#0_1" arrivalPos="10.70" arrivalSpeed="8.38" duration="108.00" routeLength="1107.08" waitingTime="0.00" waitingCount="0" stopTime="0.00" timeLoss="18.86" rerouteNo="0" devices="tripinfo_veh38" vType="passenger" speedFactor="0.95" vaporized=""/>
    <tripinfo id="veh175" depart="105.00" departLane="-40236203#2_1" departPos="0.33" departSpeed="0.00" departDelay="0.00" arrival="136.00" arrivalLane="1136283379#1_1" arrivalPos="30.99" arrivalSpeed="9.04" duration="31.00" routeLength="312.65" waitingTime="0.00" waitingCount="0" stopTime="0.00" timeLoss="6.84" rerouteNo="0" devices="tripinfo_veh175" vType="motorcycle" speedFactor="1.10" vaporized=""/>
    <tripinfo id="veh23" depart="14.00" departLane="-43546064#1_1" departPos="79.59" departSpeed="0.00" departDelay="0.20" arrival="138.00" arrivalLane="43544588#1_1" arrivalPos="38.30" arrivalSpeed="11.54" duration="124.00" routeLength="1304.43" waitingTime="0.00" waitingCount="0" stopTime="0.00" timeLoss="16.32" rerouteNo="0" devices="tripinfo_veh23" vType="passenger" speedFactor="0.89" vaporized=""/>
    <tripinfo id="veh35" depart="21.00" departLane="-647383048_1" departPos="54.64" departSpeed="0.00" departDelay="0.00" arrival="145.00" arrivalLane="354252039#1_1" arrivalPos="19.16" arrivalSpeed="13.97" duration="124.00" routeLength="1455.94" waitingTime="0.00" waitingCount="0" stopTime="0.00" timeLoss="19.07" rerouteNo="0" devices="tripinfo_veh35" vType="passenger" speedFactor="1.04" vaporized=""/>
    <tripinfo id="veh120" depart="72.00" departLane="-40236220#0_1" departPos="2.53" departSpeed="0.00" departDelay="0.00" arrival="148.00" arrivalLane="-48778461#1_1" arrivalPos="23.84" arrivalSpeed="12.65" duration="76.00" routeLength="767.03" waitingTime="0.00" waitingCount="0" stopTime="0.00" timeLoss="17.69" rerouteNo="0" devices="tripinfo_veh120" vType="motorcycle" speedFactor="1.04" vaporized=""/>
    <tripinfo id="veh152" depart="92.00" departLane="-48778446#1_1" departPos="0.05" departSpeed="0.00" departDelay="0.80" arrival="148.00" arrivalLane="-1135772297_0" arrivalPos="4.71" arrivalSpeed="5.35" duration="56.00" routeLength="327.21" waitingTime="14.00" waitingCount="1" stopTime="0.00" timeLoss="28.31" rerouteNo="0" devices="tripinfo_veh152" vType="delivery" speedFactor="0.99" vaporized=""/>
    <tripinfo id="veh40" depart="24.00" departLane="-48778503#1_1" departPos="23.11" departSpeed="0.00" departDelay="0.00" arrival="155.00" arrivalLane="-1136301812#1_1" arrivalPos="6.69" arrivalSpeed="8.85" duration="131.00" routeLength="1560.76" waitingTime="0.00" waitingCount="0" stopTime="0.00" timeLoss="21.59" rerouteNo="0" devices="tripinfo_veh40" vType="passenger" speedFactor="1.06" vaporized=""/>
    <tripinfo id="veh24" depart="15.00" departLane="48778454#0_1" departPos="5.71" departSpeed="0.00" departDelay="0.60" arrival="163.00" arrivalLane="-40345930_1" arrivalPos="20.95" arrivalSpeed="13.63" duration="148.00" routeLength="1459.37" waitingTime="20.00" waitingCount="1" stopTime="0.00" timeLoss="52.31" rerouteNo="0" devices="tripinfo_veh24" vType="passenger" speedFactor="1.15" vaporized=""/>
    <tripinfo id="veh71" depart="43.00" departLane="-647998063#1_1" departPos="48.14" departSpeed="0.00" departDelay="0.40" arrival="163.00" arrivalLane="-43547017#5_1" arrivalPos="24.30" arrivalSpeed="12.04" duration="120.00" routeLength="1216.23" waitingTime="0.00" waitingCount="0" stopTime="0.00" timeLoss="31.51" rerouteNo="0" devices="tripinfo_veh71" vType="passenger" speedFactor="1.05" vaporized=""/>
    <tripinfo id="veh126" depart="76.00" departLane="1136301812#1_1" departPos="7.43" departSpeed="0.00" departDelay="0.40" arrival="165.00" arrivalLane="-48797771#2_1" arrivalPos="26.22" arrivalSpeed="12.23" duration="89.00" routeLength="720.12" waitingTime="0.00" waitingCount="0" stopTime="0.00" timeLoss="18.43" rerouteNo="0" devices="tripinfo_veh126" vType="passenger" speedFactor="0.91" vaporized=""/>
    <tripinfo id="veh154" depart="93.00" departLane="-43544624#3_1" departPos="164.53" departSpeed="0.00" departDelay="0.60" arrival="166.00" arrivalLane="-43544179#10_1" arrivalPos="22.73" arrivalSpeed="14.05" duration="73.00" routeLength="876.72" waitingTime="0.00" waitingCount="0" stopTime="0.00" timeLoss="13.45" rerouteNo="0" devices="tripinfo_veh154" vType="passenger" speedFactor="1.10" vaporized=""/>
    <tripinfo id="veh184" depart="111.00" departLane="-647262856_1" departPos="302.35" departSpeed="0.00" departDelay="0.60" arrival="167.00" arrivalLane="43544202#1_1" arrivalPos="96.02" arrivalSpeed="15.07" duration="56.00" routeLength="618.55" waitingTime="0.00" waitingCount="0" stopTime="0.00" timeLoss="12.88" rerouteNo="0" devices="tripinfo_veh184" vType="passenger" speedFactor="1.09" vaporized=""/>
    <tripinfo id="veh8" depart="5.00" departLane="48788485#9_1" departPos="157.29" departSpeed="0.00" departDelay="0.20" arrival="168.00" arrivalLane="-43546688#2_1" arrivalPos="41.74" arrivalSpeed="12.39" duration="163.00" routeLength="1688.71" waitingTime="4.00" waitingCount="1" stopTime="0.00" timeLoss="26.31" rerouteNo="0" devices="tripinfo_veh8" vType="passenger" speedFactor="0.92" vaporized=""/>
    <tripinfo id="veh27" depart="17.00" departLane="222605084#7_1" departPos="26.72" departSpeed="0.00" departDelay="0.80" arrival="174.00" arrivalLane="43573547#3_1" arrivalPos="51.38" arrivalSpeed="12.54" duration="157.00" routeLength="1329.99" waitingTime="3.00" waitingCount="1" stopTime="0.00" timeLoss="31.80" rerouteNo="0" devices="tripinfo_veh27" vType="passenger" speedFactor="0.99" vaporized=""/>
    <tripinfo id="veh110" depart="66.00" departLane="-1250915722#5_1" departPos="45.32" departSpeed="0.00" departDelay="0.00" arrival="174.00" arrivalLane="E40_0" arrivalPos="24.19" arrivalSpeed="11.88" duration="108.00" routeLength="1017.28" waitingTime="0.00" waitingCount="0" stopTime="0.00" timeLoss="11.86" rerouteNo="0" devices="tripinfo_veh110" vType="passenger" speedFactor="1.01" vaporized=""/>
    <tripinfo id="veh160" depart="96.00" departLane="945793490#3_1" departPos="7.12" departSpeed="0.00" departDelay="0.00" arrival="174.00" arrivalLane="-222605087#3_1" arrivalPos="56.94" arrivalSpeed="3.94" duration="78.00" routeLength="293.16" waitingTime="1.00" waitingCount="1" stopTime="0.00" timeLoss="14.09" rerouteNo="0" devices="tripinfo_veh160" vType="passenger" speedFactor="0.83" vaporized=""/>
    <tripinfo id="veh166" depart="100.00" departLane="176279225#1_1" departPos="4.31" departSpeed="0.00" departDelay="0.40" arrival="175.00" arrivalLane="48778480#4_2" arrivalPos="14.79" arrivalSpeed="12.37" duration="75.00" routeLength="811.91" waitingTime="0.00" waitingCount="0" stopTime="0.00" timeLoss="14.66" rerouteNo="0" devices="tripinfo_veh166" vType="motorcycle" speedFactor="1.00" vaporized=""/>
    <tripinfo id="veh61" depart="37.00" departLane="43544197#7_1" departPos="21.28" departSpeed="0.00" departDelay="0.40" arrival="178.00" arrivalLane="-48778502#0_1" arrivalPos="26.17" arrivalSpeed="11.89" duration="141.00" routeLength="1406.92" waitingTime="0.00" waitingCount="0" stopTime="0.00" timeLoss="25.37" rerouteNo="0" devices="tripinfo_veh61" vType="passenger" speedFactor="0.92" vaporized=""/>
    <tripinfo id="veh54" depart="33.00" departLane="-40299264#2_1" departPos="13.66" departSpeed="0.00" departDelay="0.60" arrival="182.00" arrivalLane="-48736611#1_1" arrivalPos="4.90" arrivalSpeed="6.20" duration="149.00" routeLength="1230.65" waitingTime="25.00" waitingCount="1" stopTime="0.00" timeLoss="49.39" rerouteNo="0" devices="tripinfo_veh54" vType="passenger" speedFactor="0.95" vaporized=""/>
    <tripinfo id="veh116" depart="70.00" departLane="48788485#7_1" departPos="128.25" departSpeed="0.00" departDelay="0.40" arrival="182.00" arrivalLane="-48778505#2_1" arrivalPos="58.27" arrivalSpeed="14.17" duration="112.00" routeLength="1188.61" waitingTime="5.00" waitingCount="1" stopTime="0.00" timeLoss="28.46" rerouteNo="0" devices="tripinfo_veh116" vType="delivery" speedFactor="1.06" vaporized=""/>
    <tripinfo id="veh59" depart="36.00" departLane="353939570#9_2" departPos="41.14" departSpeed="0.00" departDelay="0.60" arrival="183.00" arrivalLane="40236203#3_1" arrivalPos="78.82" arrivalSpeed="13.73" duration="147.00" routeLength="1091.20" waitingTime="46.00" waitingCount="3" stopTime="0.00" timeLoss="74.40" rerouteNo="0" devices="tripinfo_veh59" vType="passenger" speedFactor="1.12" vaporized=""/>
    <tripinfo id="veh133" depart="80.00" departLane="-40299241#1_1" departPos="11.26" departSpeed="0.00" departDelay="0.20" arrival="186.00" arrivalLane="40334244#1_1" arrivalPos="76.14" arrivalSpeed="12.45" duration="106.00" routeLength="1032.44" waitingTime="9.00" waitingCount="1" stopTime="0.00" timeLoss="26.35" rerouteNo="0" devices="tripinfo_veh133" vType="passenger" speedFactor="0.97" vaporized=""/>
    <tripinfo id="veh64" depart="39.00" departLane="48778446#1_1" departPos="5.35" departSpeed="0.00" departDelay="0.60" arrival="188.00" arrivalLane="-33913538#6_1" arrivalPos="41.80" arrivalSpeed="13.15" duration="149.00" routeLength="1798.34" waitingTime="0.00" waitingCount="0" stopTime="0.00" timeLoss="19.40" rerouteNo="0" devices="tripinfo_veh64" vType="passenger" speedFactor="1.02" vaporized=""/>
    <tripinfo id="veh82" depart="50.00" departLane="1136301815#1_1" departPos="7.02" departSpeed="0.00" departDelay="0.80" arrival="190.00" arrivalLane="578560104#6_1" arrivalPos="101.26" arrivalSpeed="14.26" duration="140.00" routeLength="1256.99" waitingTime="0.00" waitingCount="0" stopTime="0.00" timeLoss="35.09" rerouteNo="0" devices="tripinfo_veh82" vType="passenger" speedFactor="1.08" vaporized=""/>
    <tripinfo id="veh125" depart="75.00" departLane="383582502_0" departPos="45.55" departSpeed="0.00" departDelay="0.00" arrival="193.00" arrivalLane="43546460#2_1" arrivalPos="42.79" arrivalSpeed="13.93" duration="118.00" routeLength="410.08" waitingTime="0.00" waitingCount="0" stopTime="0.00" timeLoss="28.96" rerouteNo="0" devices="tripinfo_veh125" vType="motorcycle" speedFactor="1.01" vaporized=""/>
    <tripinfo id="veh189" depart="114.00" departLane="48778495#1_1" departPos="14.90" departSpeed="0.00" departDelay="0.60" arrival="194.00" arrivalLane="-222609004#1_1" arrivalPos="58.62" arrivalSpeed="14.80" duration="80.00" routeLength="308.03" waitingTime="42.00" waitingCount="2" stopTime="0.00" timeLoss="57.77" rerouteNo="0" devices="tripinfo_veh189" vType="delivery" speedFactor="1.08" vaporized=""/>
    <tripinfo id="veh281" depart="169.00" departLane="40236232#0_1" departPos="26.96" departSpeed="0.00" departDelay="0.40" arrival="194.00" arrivalLane="-40236220#0_1" arrivalPos="33.44" arrivalSpeed="16.50" duration="25.00" routeLength="262.61" waitingTime="0.00" waitingCount="0" stopTime="0.00" timeLoss="8.77" rerouteNo="0" devices="tripinfo_veh281" vType="passenger" speedFactor="1.26" vaporized=""/>
    <tripinfo id="veh41" depart="25.00" departLane="671642318#0_1" departPos="68.37" departSpeed="0.00" departDelay="0.40" arrival="196.00" arrivalLane="-67712683_1" arrivalPos="77.22" arrivalSpeed="15.64" duration="171.00" routeLength="2200.71" waitingTime="0.00" waitingCount="0" stopTime="0.00" timeLoss="32.00" rerouteNo="0" devices="tripinfo_veh41" vType="passenger" speedFactor="1.17" vaporized=""/>
    <personinfo id="ped33" depart="165.00" type="DEFAULT_PEDTYPE" speedFactor="1.05" duration="37.00" waitingTime="0.00" timeLoss="4.59" traveltime="37.00">
        <walk depart="165.00" departPos="0.00" arrival="202.00" arrivalPos="47.06" duration="37.00" routeLength="47.06" timeLoss="4.59" maxSpeed="1.45"/>
    </personinfo>
    <tripinfo id="veh75" depart="45.00" departLane="40236232#1_1" departPos="109.57" departSpeed="0.00" departDelay="0.00" arrival="202.00" arrivalLane="-40299264#2_1" arrivalPos="30.73" arrivalSpeed="12.54" duration="157.00" routeLength="1450.62" waitingTime="14.00" waitingCount="2" stopTime="0.00" timeLoss="59.30" rerouteNo="0" devices="tripinfo_veh75" vType="passenger" speedFactor="1.14" vaporized=""/>
    <tripinfo id="veh70" depart="42.00" departLane="-40304754#4_1" departPos="15.57" departSpeed="0.00" departDelay="0.00" arrival="203.00" arrivalLane="92198453#5_1" arrivalPos="73.54" arrivalSpeed="10.74" duration="161.00" routeLength="1671.91" waitingTime="0.00" waitingCount="0" stopTime="0.00" timeLoss="14.56" rerouteNo="0" devices="tripinfo_veh70" vType="passenger" speedFactor="0.83" vaporized=""/>
    <tripinfo id="veh39" depart="24.00" departLane="859738688_0" departPos="64.70" departSpeed="0.00" departDelay="0.60" arrival="205.00" arrivalLane="-40314853#1_1" arrivalPos="111.58" arrivalSpeed="11.85" duration="181.00" routeLength="1293.50" waitingTime="22.00" waitingCount="2" stopTime="0.00" timeLoss="51.86" rerouteNo="0" devices="tripinfo_veh39" vType="passenger" speedFactor="0.88" vaporized=""/>
    <personinfo id="ped27" depart="135.00" type="DEFAULT_PEDTYPE" speedFactor="1.01" duration="71.00" waitingTime="0.00" timeLoss="9.48" traveltime="71.00">
        <walk depart="135.00" departPos="0.00" arrival="206.00" arrivalPos="70.38" duration="71.00" routeLength="85.94" timeLoss="9.48" maxSpeed="1.40"/>
    </personinfo>
    <tripinfo id="veh159" depart="97.00" departLane="40236203#3_1" departPos="76.90" departSpeed="0.00" departDelay="1.60" arrival="207.00" arrivalLane="-401741889#0_1" arrivalPos="387.33" arrivalSpeed="13.91" duration="110.00" routeLength="1134.39" waitingTime="10.00" waitingCount="1" stopTime="0.00" timeLoss="30.07" rerouteNo="0" devices="tripinfo_veh159" vType="passenger" speedFactor="1.04" vaporized=""/>
    <tripinfo id="veh22" depart="14.00" departLane="40236228#0_1" departPos="21.88" departSpeed="0.00" departDelay="0.80" arrival="208.00" arrivalLane="-383582503_0" arrivalPos="105.76" arrivalSpeed="6.11" duration="194.00" routeLength="1747.56" waitingTime="43.00" waitingCount="1" stopTime="0.00" timeLoss="70.26" rerouteNo="0" devices="tripinfo_veh22" vType="passenger" speedFactor="1.13" vaporized=""/>
    <tripinfo id="veh105" depart="63.00" departLane="383582513_0" departPos="30.57" departSpeed="0.00" departDelay="0.00" arrival="211.00" arrivalLane="-945793491#0_1" arrivalPos="34.62" arrivalSpeed="6.07" duration="148.00" routeLength="1362.71" waitingTime="0.00" waitingCount="0" stopTime="0.00" timeLoss="30.18" rerouteNo="0" devices="tripinfo_veh105" vType="motorcycle" speedFactor="1.10" vaporized=""/>
    <tripinfo id="veh192" depart="116.00" departLane="-222605087#3_1" departPos="6.32" departSpeed="0.00" departDelay="0.80" arrival="211.00" arrivalLane="40330575#2_1" arrivalPos="61.43" arrivalSpeed="11.60" duration="95.00" routeLength="735.49" waitingTime="0.00" waitingCount="0" stopTime="0.00" timeLoss="14.14" rerouteNo="0" devices="tripinfo_veh192" vType="passenger" speedFactor="0.89" vaporized=""/>
    <tripinfo id="veh51" depart="31.00" departLane="67712683_1" departPos="35.39" departSpeed="0.00" departDelay="0.40" arrival="213.00" arrivalLane="671642327_0" arrivalPos="200.39" arrivalSpeed="4.84" duration="182.00" routeLength="1629.26" waitingTime="0.00" waitingCount="0" stopTime="0.00" timeLoss="29.39" rerouteNo="0" devices="tripinfo_veh51" vType="delivery" speedFactor="0.99" vaporized=""/>
    <tripinfo id="veh94" depart="57.00" departLane="43548506_1" departPos="55.96" departSpeed="0.00" departDelay="0.60" arrival="213.00" arrivalLane="-40299264#0_1" arrivalPos="72.08" arrivalSpeed="10.86" duration="156.00" routeLength="1187.45" waitingTime="39.00" waitingCount="1" stopTime="0.00" timeLoss="63.41" rerouteNo="0" devices="tripinfo_veh94" vType="motorcycle" speedFactor="0.98" vaporized=""/>
    <tripinfo id="veh106" depart="64.00" departLane="-48736666#1_1" departPos="6.91" departSpeed="0.00" departDelay="0.40" arrival="213.00" arrivalLane="48736618_1" arrivalPos="45.61" arrivalSpeed="13.61" duration="149.00" routeLength="1370.01" waitingTime="19.00" waitingCount="2" stopTime="0.00" timeLoss="47.99" rerouteNo="0" devices="tripinfo_veh106" vType="passenger" speedFactor="1.03" vaporized=""/>
    <tripinfo id="veh4" depart="3.00" departLane="-48736612#2_1" departPos="39.15" departSpeed="0.00" departDelay="0.60" arrival="214.00" arrivalLane="-48778457#0_1" arrivalPos="3.64" arrivalSpeed="11.79" duration="211.00" routeLength="1633.76" waitingTime="53.00" waitingCount="2" stopTime="0.00" timeLoss="82.18" rerouteNo="0" devices="tripinfo_veh4" vType="passenger" speedFactor="0.94" vaporized=""/>
    <tripinfo id="veh121" depart="73.00" departLane="-996489799#1_0" departPos="29.07" departSpeed="0.00" departDelay="0.40" arrival="217.00" arrivalLane="945793486#1_0" arrivalPos="46.02" arrivalSpeed="4.84" duration="144.00" routeLength="1194.58" waitingTime="8.00" waitingCount="1" stopTime="0.00" timeLoss="36.59" rerouteNo="0" devices="tripinfo_veh121" vType="passenger" speedFactor="0.94" vaporized=""/>
    <tripinfo id="veh66" depart="40.00" departLane="-1205541343#1_1" departPos="6.88" departSpeed="0.00" departDelay="0.40" arrival="219.00" arrivalLane="43546935#2_1" arrivalPos="44.28" arrivalSpeed="13.18" duration="179.00" routeLength="2013.98" waitingTime="0.00" waitingCount="0" stopTime="0.00" timeLoss="19.88" rerouteNo="0" devices="tripinfo_veh66" vType="passenger" speedFactor="0.98" vaporized=""/>
    <tripinfo id="veh79" depart="48.00" departLane="647226815#1_1" departPos="16.23" departSpeed="0.00" departDelay="0.60" arrival="221.00" arrivalLane="-E12_1" arrivalPos="17.16" arrivalSpeed="14.65" duration="173.00" routeLength="2139.18" waitingTime="0.00" waitingCount="0" stopTime="0.00" timeLoss="26.24" rerouteNo="0" devices="tripinfo_veh79" vType="passenger" speedFactor="1.06" vaporized=""/>
    <tripinfo id="veh9" depart="6.00" departLane="1136279381_1" departPos="55.61" departSpeed="0.00" departDelay="0.60" arrival="222.00" arrivalLane="-264868325_1" arrivalPos="96.14" arrivalSpeed="15.60" duration="216.00" routeLength="2433.43" waitingTime="28.00" waitingCount="1" stopTime="0.00" timeLoss="54.10" rerouteNo="0" devices="tripinfo_veh9" vType="passenger" speedFactor="1.12" vaporized=""/>
    <tripinfo id="veh78" depart="47.00" departLane="251916699#2.34_1" departPos="1.22" departSpeed="0.00" departDelay="0.20" arrival="223.00" arrivalLane="-43546105#2_1" arrivalPos="10.89" arrivalSpeed="12.93" duration="176.00" routeLength="1686.44" waitingTime="28.00" waitingCount="1" stopTime="0.00" timeLoss="49.37" rerouteNo="0" devices="tripinfo_veh78" vType="delivery" speedFactor="0.98" vaporized=""/>
    <tripinfo id="veh113" depart="68.00" departLane="-43544197#7_1" departPos="21.39" departSpeed="0.00" departDelay="0.20" arrival="225.00" arrivalLane="48736647#1_1" arrivalPos="90.38" arrivalSpeed="14.69" duration="157.00" routeLength="1918.88" waitingTime="0.00" waitingCount="0" stopTime="0.00" timeLoss="23.01" rerouteNo="0" devices="tripinfo_veh113" vType="passenger" speedFactor="1.06" vaporized=""/>
    <tripinfo id="veh81" depart="49.00" departLane="250295383#3_1" departPos="10.79" departSpeed="0.00" departDelay="0.40" arrival="227.00" arrivalLane="-43546506#1_1" arrivalPos="102.40" arrivalSpeed="11.43" duration="178.00" routeLength="1855.40" waitingTime="0.00" waitingCount="0" stopTime="0.00" timeLoss="24.82" rerouteNo="0" devices="tripinfo_veh81" vType="passenger" speedFactor="0.89" vaporized=""/>
    <tripinfo id="veh302" depart="182.00" departLane="-43544202#1_1" departPos="85.32" departSpeed="0.00" departDelay="0.80" arrival="228.00" arrivalLane="-354252043_1" arrivalPos="59.78" arrivalSpeed="12.89" duration="46.00" routeLength="469.98" waitingTime="0.00" waitingCount="0" stopTime="0.00" timeLoss="11.19" rerouteNo="0" devices="tripinfo_veh302" vType="motorcycle" speedFactor="1.07" vaporized=""/>
    <tripinfo id="veh36" depart="22.00" departLane="-492965073#7_2" departPos="0.83" departSpeed="0.00" departDelay="0.40" arrival="230.00" arrivalLane="40265780#1_1" arrivalPos="48.14" arrivalSpeed="13.55" duration="208.00" routeLength="1692.99" waitingTime="26.00" waitingCount="1" stopTime="0.00" timeLoss="77.55" rerouteNo="0" devices="tripinfo_veh36" vType="emergency" speedFactor="1.00" vaporized=""/>
    <tripinfo id="veh156" depart="94.00" departLane="1205541344_0" departPos="41.21" departSpeed="0.00" departDelay="0.40" arrival="230.00" arrivalLane="-43546688#0_1" arrivalPos="19.83" arrivalSpeed="8.80" duration="136.00" routeLength="1427.07" waitingTime="0.00" waitingCount="0" stopTime="0.00" timeLoss="26.69" rerouteNo="0" devices="tripinfo_veh156" vType="passenger" speedFactor="1.00" vaporized=""/>
    <personinfo id="ped40" depart="200.00" type="DEFAULT_PEDTYPE" speedFactor="0.77" duration="31.00" waitingTime="0.00" timeLoss="3.70" traveltime="31.00">
        <walk depart="200.00" departPos="0.00" arrival="231.00" arrivalPos="24.07" duration="31.00" routeLength="29.32" timeLoss="3.70" maxSpeed="1.07"/>
    </personinfo>
    <tripinfo id="veh204" depart="123.00" departLane="67712683_1" departPos="5.91" departSpeed="0.00" departDelay="0.60" arrival="231.00" arrivalLane="43544138#8_1" arrivalPos="5.97" arrivalSpeed="16.78" duration="108.00" routeLength="1372.36" waitingTime="0.00" waitingCount="0" stopTime="0.00" timeLoss="26.79" rerouteNo="0" devices="tripinfo_veh204" vType="passenger" speedFactor="1.26" vaporized=""/>
    <tripinfo id="veh230" depart="138.00" departLane="-1136283379#0_1" departPos="72.35" departSpeed="0.00" departDelay="0.00" arrival="231.00" arrivalLane="-43573547#0_1" arrivalPos="148.63" arrivalSpeed="13.43" duration="93.00" routeLength="980.12" waitingTime="0.00" waitingCount="0" stopTime="0.00" timeLoss="13.37" rerouteNo="0" devices="tripinfo_veh230" vType="delivery" speedFactor="1.01" vaporized=""/>
    <tripinfo id="veh200" depart="120.00" departLane="-671642321_1" departPos="48.01" departSpeed="0.00" departDelay="0.00" arrival="232.00" arrivalLane="-43546789#0_1" arrivalPos="14.66" arrivalSpeed="11.57" duration="112.00" routeLength="982.40" waitingTime="0.00" waitingCount="0" stopTime="0.00" timeLoss="32.58" rerouteNo="0" devices="tripinfo_veh200" vType="delivery" speedFactor="0.98" vaporized=""/>
    <tripinfo id="veh367" depart="221.00" departLane="-43546460#9_1" departPos="38.75" departSpeed="0.00" departDelay="0.80" arrival="233.00" arrivalLane="-43546460#8_1" arrivalPos="96.42" arrivalSpeed="14.03" duration="12.00" routeLength="123.76" waitingTime="0.00" waitingCount="0" stopTime="0.00" timeLoss="3.41" rerouteNo="0" devices="tripinfo_veh367" vType="passenger" speedFactor="1.08" vaporized=""/>
    <tripinfo id="veh30" depart="18.00" departLane="-222609002#2_1" departPos="2.76" departSpeed="0.00" departDelay="0.00" arrival="234.00" arrivalLane="996486453_1" arrivalPos="111.92" arrivalSpeed="12.97" duration="216.00" routeLength="2328.23" waitingTime="7.00" waitingCount="1" stopTime="0.00" timeLoss="32.66" rerouteNo="0" devices="tripinfo_veh30" vType="passenger" speedFactor="0.94" vaporized=""/>
    <tripinfo id="veh37" depart="23.00" departLane="-492965073#6_2" departPos="0.95" departSpeed="0.00" departDelay="0.80" arrival="234.00" arrivalLane="-43546460#4_1" arrivalPos="197.29" arrivalSpeed="14.48" duration="211.00" routeLength="2193.98" waitingTime="16.00" waitingCount="2" stopTime="0.00" timeLoss="62.89" rerouteNo="0" devices="tripinfo_veh37" vType="passenger" speedFactor="1.09" vaporized=""/>
    <tripinfo id="veh69" depart="42.00" departLane="353939570#1_2" departPos="23.47" departSpeed="0.00" departDelay="0.60" arrival="234.00" arrivalLane="-48778475#1_1" arrivalPos="25.99" arrivalSpeed="12.49" duration="192.00" routeLength="1899.87" waitingTime="2.00" waitingCount="1" stopTime="0.00" timeLoss="42.78" rerouteNo="0" devices="tripinfo_veh69" vType="motorcycle" speedFactor="0.94" vaporized=""/>