<?xml version="1.0" encoding="UTF-8"?>

<!-- generated on 2025-06-12 12:31:20 by Eclipse SUMO sumo Version 1.22.0
<sumoConfiguration xmlns:xsi="http://www.w3.org/2001/XMLSchema-instance" xsi:noNamespaceSchemaLocation="http://sumo.dlr.de/xsd/sumoConfiguration.xsd">

    <input>
        <net-file value="osm.net.xml"/>
        <route-files value="full.rou.xml, ped.rou.xml, truck.rou.xml"/>
        <additional-files value="osm.poly.xml, vtypes.xml"/>
    </input>

    <output>
        <summary-output value="summary.xml"/>
        <tripinfo-output value="E:\licenta\oras-mediu\2025-06-05-11-45-23\baseline_outputs\tripinfo_baseline_ep7.xml"/>
    </output>

    <processing>
        <ignore-route-errors value="true"/>
        <tls.actuated.jam-threshold value="30"/>
    </processing>

    <routing>
        <device.rerouting.adaptation-steps value="18"/>
        <device.rerouting.adaptation-interval value="10"/>
    </routing>

    <report>
        <verbose value="true"/>
        <duration-log.statistics value="true"/>
        <no-step-log value="true"/>
    </report>

    <traci_server>
        <remote-port value="64475"/>
    </traci_server>

    <gui_only>
        <gui-settings-file value="osm.view.xml"/>
    </gui_only>

</sumoConfiguration>
-->

<tripinfos xmlns:xsi="http://www.w3.org/2001/XMLSchema-instance" xsi:noNamespaceSchemaLocation="http://sumo.dlr.de/xsd/tripinfo_file.xsd">
    <personinfo id="ped0" depart="0.00" type="DEFAULT_PEDTYPE" speedFactor="1.03" duration="17.00" waitingTime="0.00" timeLoss="2.39" traveltime="17.00">
        <walk depart="0.00" departPos="0.00" arrival="17.00" arrivalPos="20.91" duration="17.00" routeLength="20.91" timeLoss="2.39" maxSpeed="1.43"/>
    </personinfo>
    <tripinfo id="veh3" depart="2.00" departLane="48778446#0_1" departPos="2.48" departSpeed="0.00" departDelay="0.14" arrival="72.00" arrivalLane="-1135856957_0" arrivalPos="27.07" arrivalSpeed="4.18" duration="70.00" routeLength="603.01" waitingTime="0.00" waitingCount="0" stopTime="0.00" timeLoss="14.75" rerouteNo="0" devices="tripinfo_veh3" vType="passenger" speedFactor="0.94" vaporized=""/>
    <tripinfo id="veh67" depart="42.00" departLane="-E34_1" departPos="15.01" departSpeed="0.00" departDelay="0.46" arrival="80.00" arrivalLane="48736666#2_1" arrivalPos="56.15" arrivalSpeed="13.79" duration="38.00" routeLength="380.97" waitingTime="0.00" waitingCount="0" stopTime="0.00" timeLoss="8.53" rerouteNo="0" devices="tripinfo_veh67" vType="passenger" speedFactor="1.01" vaporized=""/>
    <tripinfo id="veh18" depart="12.00" departLane="-1136283361_0" departPos="15.33" departSpeed="0.00" departDelay="0.84" arrival="84.00" arrivalLane="48778504_1" arrivalPos="191.60" arrivalSpeed="13.22" duration="72.00" routeLength="733.17" waitingTime="0.00" waitingCount="0" stopTime="0.00" timeLoss="9.95" rerouteNo="0" devices="tripinfo_veh18" vType="passenger" speedFactor="1.01" vaporized=""/>
    <tripinfo id="veh80" depart="50.00" departLane="1135772296#0_0" departPos="4.87" departSpeed="0.00" departDelay="0.40" arrival="94.00" arrivalLane="-48797765#0_1" arrivalPos="17.81" arrivalSpeed="11.35" duration="44.00" routeLength="339.16" waitingTime="0.00" waitingCount="0" stopTime="0.00" timeLoss="12.76" rerouteNo="0" devices="tripinfo_veh80" vType="passenger" speedFactor="1.08" vaporized=""/>
    <tripinfo id="veh75" depart="47.00" departLane="-48736655_1" departPos="8.83" departSpeed="0.00" departDelay="0.50" arrival="96.00" arrivalLane="-48736610#2_1" arrivalPos="69.94" arrivalSpeed="14.72" duration="49.00" routeLength="431.87" waitingTime="0.00" waitingCount="0" stopTime="0.00" timeLoss="12.87" rerouteNo="0" devices="tripinfo_veh75" vType="passenger" speedFactor="1.10" vaporized=""/>
    <tripinfo id="veh30" depart="19.00" departLane="250295379_1" departPos="42.40" departSpeed="0.00" departDelay="0.40" arrival="98.00" arrivalLane="-48797765#0_1" arrivalPos="17.81" arrivalSpeed="13.12" duration="79.00" routeLength="570.21" waitingTime="2.00" waitingCount="1" stopTime="0.00" timeLoss="24.96" rerouteNo="0" devices="tripinfo_veh30" vType="passenger" speedFactor="1.10" vaporized=""/>
    <tripinfo id="veh71" depart="45.00" departLane="-174818018#0_0" departPos="467.71" departSpeed="0.00" departDelay="0.98" arrival="105.00" arrivalLane="-383582519_0" arrivalPos="74.79" arrivalSpeed="5.65" duration="60.00" routeLength="506.17" waitingTime="0.00" waitingCount="0" stopTime="0.00" timeLoss="10.06" rerouteNo="0" devices="tripinfo_veh71" vType="passenger" speedFactor="1.06" vaporized=""/>
    <tripinfo id="veh82" depart="51.00" departLane="-43547017#3_1" departPos="4.02" departSpeed="0.00" departDelay="0.16" arrival="113.00" arrivalLane="-143207979#1_1" arrivalPos="43.59" arrivalSpeed="13.21" duration="62.00" routeLength="703.28" waitingTime="0.00" waitingCount="0" stopTime="0.00" timeLoss="9.14" rerouteNo="0" devices="tripinfo_veh82" vType="passenger" speedFactor="0.98" vaporized=""/>
    <tripinfo id="veh23" depart="15.00" departLane="43546688#0_1" departPos="11.82" departSpeed="0.00" departDelay="0.74" arrival="117.00" arrivalLane="1136301815#1_1" arrivalPos="29.62" arrivalSpeed="14.72" duration="102.00" routeLength="1129.57" waitingTime="3.00" waitingCount="1" stopTime="0.00" timeLoss="27.68" rerouteNo="0" devices="tripinfo_veh23" vType="passenger" speedFactor="1.15" vaporized=""/>
    <tripinfo id="veh59" depart="41.00" departLane="-222605087#2_1" departPos="5.15" departSpeed="0.00" departDelay="4.42" arrival="119.00" arrivalLane="1250915722#3_1" arrivalPos="5.41" arrivalSpeed="4.73" duration="78.00" routeLength="365.54" waitingTime="0.00" waitingCount="0" stopTime="0.00" timeLoss="10.73" rerouteNo="0" devices="tripinfo_veh59" vType="passenger" speedFactor="0.92" vaporized=""/>
    <tripinfo id="veh105" depart="66.00" departLane="43544202#1_1" departPos="67.10" departSpeed="0.00" departDelay="0.90" arrival="121.00" arrivalLane="48778524#1_1" arrivalPos="19.99" arrivalSpeed="13.79" duration="55.00" routeLength="604.73" waitingTime="0.00" waitingCount="0" stopTime="0.00" timeLoss="10.48" rerouteNo="0" devices="tripinfo_veh105" vType="passenger" speedFactor="1.04" vaporized=""/>
    <tripinfo id="veh32" depart="20.00" departLane="1250915723#0_1" departPos="0.89" departSpeed="0.00" departDelay="0.16" arrival="122.00" arrivalLane="859734514#1_0" arrivalPos="56.51" arrivalSpeed="5.38" duration="102.00" routeLength="842.50" waitingTime="0.00" waitingCount="0" stopTime="0.00" timeLoss="12.83" rerouteNo="0" devices="tripinfo_veh32" vType="passenger" speedFactor="1.03" vaporized=""/>
    <tripinfo id="veh15" depart="10.00" departLane="250295380#0_1" departPos="91.73" departSpeed="0.00" departDelay="0.70" arrival="126.00" arrivalLane="-223942064#2_0" arrivalPos="10.18" arrivalSpeed="13.38" duration="116.00" routeLength="1148.53" waitingTime="12.00" waitingCount="1" stopTime="0.00" timeLoss="32.41" rerouteNo="0" devices="tripinfo_veh15" vType="passenger" speedFactor="1.02" vaporized=""/>
    <tripinfo id="veh69" depart="43.00" departLane="40315648#0_1" departPos="74.86" departSpeed="0.00" departDelay="0.22" arrival="127.00" arrivalLane="-40304754#3_1" arrivalPos="54.89" arrivalSpeed="11.36" duration="84.00" routeLength="839.35" waitingTime="0.00" waitingCount="0" stopTime="0.00" timeLoss="9.92" rerouteNo="0" devices="tripinfo_veh69" vType="passenger" speedFactor="0.83" vaporized=""/>
    <tripinfo id="veh5" depart="4.00" departLane="48736624#0_1" departPos="87.84" departSpeed="0.00" departDelay="0.90" arrival="130.00" arrivalLane="-48736637_1" arrivalPos="17.08" arrivalSpeed="10.98" duration="126.00" routeLength="1059.29" waitingTime="5.00" waitingCount="1" stopTime="0.00" timeLoss="43.84" rerouteNo="0" devices="tripinfo_veh5" vType="delivery" speedFactor="1.05" vaporized=""/>
    <tripinfo id="veh81" depart="51.00" departLane="-43547017#4_1" departPos="1.17" departSpeed="0.00" departDelay="0.78" arrival="130.00" arrivalLane="-43544179#10_1" arrivalPos="22.73" arrivalSpeed="13.39" duration="79.00" routeLength="834.49" waitingTime="0.00" waitingCount="0" stopTime="0.00" timeLoss="17.20" rerouteNo="0" devices="tripinfo_veh81" vType="passenger" speedFactor="1.03" vaporized=""/>
    <tripinfo id="veh58" depart="36.00" departLane="43573573#2_1" departPos="45.84" departSpeed="0.00" departDelay="0.04" arrival="132.00" arrivalLane="-383582508#1_0" arrivalPos="33.34" arrivalSpeed="4.73" duration="96.00" routeLength="1069.97" waitingTime="0.00" waitingCount="0" stopTime="0.00" timeLoss="14.26" rerouteNo="0" devices="tripinfo_veh58" vType="passenger" speedFactor="1.03" vaporized=""/>
    <tripinfo id="veh68" depart="43.00" departLane="-48778473#1_1" departPos="1.31" departSpeed="0.00" departDelay="0.84" arrival="134.00" arrivalLane="1136301811_1" arrivalPos="31.32" arrivalSpeed="6.76" duration="91.00" routeLength="862.19" waitingTime="0.00" waitingCount="0" stopTime="0.00" timeLoss="17.79" rerouteNo="0" devices="tripinfo_veh68" vType="motorcycle" speedFactor="0.94" vaporized=""/>
    <tripinfo id="veh47" depart="30.00" departLane="40329447_1" departPos="7.40" departSpeed="0.00" departDelay="0.86" arrival="135.00" arrivalLane="-1135855912_1" arrivalPos="95.20" arrivalSpeed="13.13" duration="105.00" routeLength="1042.69" waitingTime="0.00" waitingCount="0" stopTime="0.00" timeLoss="18.02" rerouteNo="0" devices="tripinfo_veh47" vType="passenger" speedFactor="1.00" vaporized=""/>
    <tripinfo id="veh2" depart="2.00" departLane="-48778475#1_1" departPos="15.33" departSpeed="0.00" departDelay="0.76" arrival="140.00" arrivalLane="48778503#0_1" arrivalPos="42.51" arrivalSpeed="14.66" duration="138.00" routeLength="1657.24" waitingTime="5.00" waitingCount="1" stopTime="0.00" timeLoss="24.98" rerouteNo="0" devices="tripinfo_veh2" vType="passenger" speedFactor="1.08" vaporized=""/>
    <tripinfo id="veh135" depart="84.00" departLane="43546039#1_1" departPos="95.05" departSpeed="0.00" departDelay="0.30" arrival="140.00" arrivalLane="43544138#3_1" arrivalPos="46.01" arrivalSpeed="13.60" duration="56.00" routeLength="575.18" waitingTime="0.00" waitingCount="0" stopTime="0.00" timeLoss="13.45" rerouteNo="0" devices="tripinfo_veh135" vType="passenger" speedFactor="1.06" vaporized=""/>
    <tripinfo id="veh6" depart="4.00" departLane="40299264#0_1" departPos="0.43" departSpeed="0.00" departDelay="0.28" arrival="148.00" arrivalLane="-43546343#0_1" arrivalPos="138.35" arrivalSpeed="11.57" duration="144.00" routeLength="1572.86" waitingTime="0.00" waitingCount="0" stopTime="0.00" timeLoss="17.35" rerouteNo="0" devices="tripinfo_veh6" vType="passenger" speedFactor="0.92" vaporized=""/>
    <tripinfo id="veh101" depart="63.00" departLane="43544179#3_1" departPos="19.81" departSpeed="0.00" departDelay="0.38" arrival="149.00" arrivalLane="-48778517#0_1" arrivalPos="43.62" arrivalSpeed="8.33" duration="86.00" routeLength="1030.03" waitingTime="0.00" waitingCount="0" stopTime="0.00" timeLoss="13.31" rerouteNo="0" devices="tripinfo_veh101" vType="passenger" speedFactor="1.12" vaporized=""/>
    <personinfo id="ped12" depart="60.00" type="DEFAULT_PEDTYPE" speedFactor="1.07" duration="90.00" waitingTime="0.00" timeLoss="9.72" traveltime="90.00">
        <walk depart="60.00" departPos="0.00" arrival="150.00" arrivalPos="0.18" duration="90.00" routeLength="119.34" timeLoss="9.72" maxSpeed="1.49"/>
    </personinfo>
    <tripinfo id="veh124" depart="77.00" departLane="-48778512_1" departPos="37.24" departSpeed="0.00" departDelay="0.12" arrival="150.00" arrivalLane="-383582518#0_0" arrivalPos="49.42" arrivalSpeed="5.37" duration="73.00" routeLength="599.37" waitingTime="0.00" waitingCount="0" stopTime="0.00" timeLoss="14.07" rerouteNo="0" devices="tripinfo_veh124" vType="delivery" speedFactor="1.00" vaporized=""/>
    <tripinfo id="veh21" depart="14.00" departLane="48778473#0_1" departPos="5.14" departSpeed="0.00" departDelay="0.98" arrival="159.00" arrivalLane="-40330557#2_1" arrivalPos="99.94" arrivalSpeed="14.50" duration="145.00" routeLength="1380.43" waitingTime="31.00" waitingCount="1" stopTime="0.00" timeLoss="54.34" rerouteNo="0" devices="tripinfo_veh21" vType="passenger" speedFactor="1.13" vaporized=""/>
    <tripinfo id="veh84" depart="53.00" departLane="-43546343#1_1" departPos="45.87" departSpeed="0.00" departDelay="0.92" arrival="160.00" arrivalLane="40236203#3_1" arrivalPos="78.82" arrivalSpeed="17.26" duration="107.00" routeLength="1386.69" waitingTime="0.00" waitingCount="0" stopTime="0.00" timeLoss="22.67" rerouteNo="0" devices="tripinfo_veh84" vType="passenger" speedFactor="1.25" vaporized=""/>
    <tripinfo id="veh92" depart="58.00" departLane="-48778492_1" departPos="32.62" departSpeed="0.00" departDelay="0.96" arrival="164.00" arrivalLane="40236220#2_1" arrivalPos="24.83" arrivalSpeed="12.90" duration="106.00" routeLength="1040.57" waitingTime="0.00" waitingCount="0" stopTime="0.00" timeLoss="23.62" rerouteNo="0" devices="tripinfo_veh92" vType="motorcycle" speedFactor="0.98" vaporized=""/>
    <tripinfo id="veh115" depart="72.00" departLane="-40236203#0_1" departPos="50.39" departSpeed="0.00" departDelay="0.70" arrival="167.00" arrivalLane="-43546648#2_1" arrivalPos="81.52" arrivalSpeed="11.66" duration="95.00" routeLength="811.79" waitingTime="2.00" waitingCount="1" stopTime="0.00" timeLoss="23.14" rerouteNo="0" devices="tripinfo_veh115" vType="passenger" speedFactor="0.89" vaporized=""/>
    <tripinfo id="veh9" depart="6.00" departLane="-143207982#4_1" departPos="4.61" departSpeed="0.00" departDelay="0.42" arrival="168.00" arrivalLane="48778453_1" arrivalPos="29.18" arrivalSpeed="11.03" duration="162.00" routeLength="1233.28" waitingTime="29.00" waitingCount="3" stopTime="0.00" timeLoss="59.85" rerouteNo="0" devices="tripinfo_veh9" vType="passenger" speedFactor="0.90" vaporized=""/>
    <tripinfo id="veh100" depart="62.00" departLane="-43544179#6_1" departPos="33.58" departSpeed="0.00" departDelay="0.00" arrival="168.00" arrivalLane="-222608881#0_1" arrivalPos="169.24" arrivalSpeed="13.28" duration="106.00" routeLength="1135.01" waitingTime="0.00" waitingCount="0" stopTime="0.00" timeLoss="20.76" rerouteNo="0" devices="tripinfo_veh100" vType="passenger" speedFactor="1.00" vaporized=""/>
    <tripinfo id="veh41" depart="26.00" departLane="-48778505#1_1" departPos="24.90" departSpeed="0.00" departDelay="0.58" arrival="169.00" arrivalLane="43544179#6_1" arrivalPos="35.50" arrivalSpeed="13.80" duration="143.00" routeLength="1594.40" waitingTime="8.00" waitingCount="1" stopTime="0.00" timeLoss="30.97" rerouteNo="0" devices="tripinfo_veh41" vType="passenger" speedFactor="1.05" vaporized=""/>
    <tripinfo id="veh108" depart="67.00" departLane="-48778508#4_1" departPos="8.29" departSpeed="0.00" departDelay="0.04" arrival="170.00" arrivalLane="48778517#1_1" arrivalPos="40.09" arrivalSpeed="8.23" duration="103.00" routeLength="1094.97" waitingTime="0.00" waitingCount="0" stopTime="0.00" timeLoss="17.17" rerouteNo="0" devices="tripinfo_veh108" vType="emergency" speedFactor="1.00" vaporized=""/>
    <tripinfo id="veh200" depart="124.00" departLane="-222608881#0_1" departPos="145.57" departSpeed="0.00" departDelay="0.00" arrival="171.00" arrivalLane="-43544138#2_1" arrivalPos="0.25" arrivalSpeed="17.23" duration="47.00" routeLength="501.22" waitingTime="0.00" waitingCount="0" stopTime="0.00" timeLoss="15.64" rerouteNo="0" devices="tripinfo_veh200" vType="passenger" speedFactor="1.26" vaporized=""/>
    <tripinfo id="veh134" depart="84.00" departLane="-48736620#0_1" departPos="2.43" departSpeed="0.00" departDelay="0.92" arrival="172.00" arrivalLane="176279225#1_2" arrivalPos="6.93" arrivalSpeed="11.70" duration="88.00" routeLength="898.26" waitingTime="0.00" waitingCount="0" stopTime="0.00" timeLoss="14.00" rerouteNo="0" devices="tripinfo_veh134" vType="passenger" speedFactor="0.90" vaporized=""/>
    <tripinfo id="veh207" depart="129.00" departLane="222609004#1_1" departPos="15.79" departSpeed="0.00" departDelay="0.66" arrival="172.00" arrivalLane="48778508#1_1" arrivalPos="98.38" arrivalSpeed="14.86" duration="43.00" routeLength="460.39" waitingTime="0.00" waitingCount="0" stopTime="0.00" timeLoss="11.23" rerouteNo="0" devices="tripinfo_veh207" vType="passenger" speedFactor="1.13" vaporized=""/>
    <tripinfo id="veh29" depart="18.00" departLane="-48736617#0_1" departPos="1.66" departSpeed="0.00" departDelay="0.02" arrival="179.00" arrivalLane="-1054663939_1" arrivalPos="21.68" arrivalSpeed="6.73" duration="161.00" routeLength="1512.03" waitingTime="3.00" waitingCount="1" stopTime="0.00" timeLoss="39.01" rerouteNo="0" devices="tripinfo_veh29" vType="passenger" speedFactor="0.94" vaporized=""/>
    <tripinfo id="veh31" depart="20.00" departLane="-40265774#0_1" departPos="20.44" departSpeed="0.00" departDelay="0.78" arrival="184.00" arrivalLane="40236220#2_1" arrivalPos="24.83" arrivalSpeed="4.20" duration="164.00" routeLength="698.58" waitingTime="0.00" waitingCount="0" stopTime="0.00" timeLoss="12.88" rerouteNo="0" devices="tripinfo_veh31" vType="bicycle" speedFactor="0.83" vaporized=""/>
    <tripinfo id="veh243" depart="151.00" departLane="-1250915721#0_1" departPos="7.28" departSpeed="0.00" departDelay="0.34" arrival="190.00" arrivalLane="-222605084#9_1" arrivalPos="2.21" arrivalSpeed="5.83" duration="39.00" routeLength="196.24" waitingTime="0.00" waitingCount="0" stopTime="0.00" timeLoss="5.33" rerouteNo="0" devices="tripinfo_veh243" vType="passenger" speedFactor="1.06" vaporized=""/>
    <tripinfo id="veh102" depart="64.00" departLane="-48736646#1_1" departPos="111.99" departSpeed="0.00" departDelay="0.76" arrival="194.00" arrivalLane="48797767#1_1" arrivalPos="62.09" arrivalSpeed="13.57" duration="130.00" routeLength="1444.60" waitingTime="10.00" waitingCount="1" stopTime="0.00" timeLoss="32.13" rerouteNo="0" devices="tripinfo_veh102" vType="motorcycle" speedFactor="1.10" vaporized=""/>
    <tripinfo id="truck9" depart="8.00" departLane="33913538#0_1" departPos="12.10" departSpeed="0.00" departDelay="0.00" arrival="196.00" arrivalLane="-33913538#0_1" arrivalPos="152.84" arrivalSpeed="13.59" duration="188.00" routeLength="2252.76" waitingTime="0.00" waitingCount="0" stopTime="0.00" timeLoss="23.82" rerouteNo="0" devices="tripinfo_truck9" vType="truck" speedFactor="1.02" vaporized=""/>
    <tripinfo id="veh19" depart="12.00" departLane="-1136283379#1_1" departPos="4.01" departSpeed="0.00" departDelay="0.22" arrival="198.00" arrivalLane="-43544179#9_1" arrivalPos="251.14" arrivalSpeed="11.28" duration="186.00" routeLength="1859.45" waitingTime="3.00" waitingCount="1" stopTime="0.00" timeLoss="24.11" rerouteNo="0" devices="tripinfo_veh19" vType="passenger" speedFactor="0.87" vaporized=""/>
    <tripinfo id="veh179" depart="111.00" departLane="250295382_1" departPos="33.08" departSpeed="0.00" departDelay="0.02" arrival="198.00" arrivalLane="-40299739#2_1" arrivalPos="43.24" arrivalSpeed="14.54" duration="87.00" routeLength="1073.00" waitingTime="0.00" waitingCount="0" stopTime="0.00" timeLoss="12.47" rerouteNo="0" devices="tripinfo_veh179" vType="passenger" speedFactor="1.06" vaporized=""/>
    <tripinfo id="veh253" depart="157.00" departLane="1136279381_1" departPos="21.73" departSpeed="0.00" departDelay="0.14" arrival="198.00" arrivalLane="48736619_1" arrivalPos="65.02" arrivalSpeed="13.82" duration="41.00" routeLength="345.66" waitingTime="0.00" waitingCount="0" stopTime="0.00" timeLoss="9.25" rerouteNo="0" devices="tripinfo_veh253" vType="emergency" speedFactor="1.00" vaporized=""/>
    <personinfo id="ped9" depart="45.00" type="DEFAULT_PEDTYPE" speedFactor="0.97" duration="155.00" waitingTime="0.00" timeLoss="15.09" traveltime="155.00">
        <walk depart="45.00" departPos="0.00" arrival="200.00" arrivalPos="57.38" duration="155.00" routeLength="188.13" timeLoss="15.09" maxSpeed="1.34"/>
    </personinfo>
    <tripinfo id="veh154" depart="96.00" departLane="-92198451#2_1" departPos="69.91" departSpeed="0.00" departDelay="0.52" arrival="200.00" arrivalLane="48736646#0_1" arrivalPos="88.26" arrivalSpeed="15.93" duration="104.00" routeLength="1480.70" waitingTime="0.00" waitingCount="0" stopTime="0.00" timeLoss="9.81" rerouteNo="0" devices="tripinfo_veh154" vType="passenger" speedFactor="1.15" vaporized=""/>
    <tripinfo id="veh54" depart="34.00" departLane="-48736624#0_1" departPos="52.17" departSpeed="0.00" departDelay="0.52" arrival="202.00" arrivalLane="258551321_1" arrivalPos="124.63" arrivalSpeed="13.88" duration="168.00" routeLength="1679.24" waitingTime="13.00" waitingCount="1" stopTime="0.00" timeLoss="46.35" rerouteNo="0" devices="tripinfo_veh54" vType="passenger" speedFactor="1.02" vaporized=""/>
    <tripinfo id="veh171" depart="107.00" departLane="48778500#2_1" departPos="95.34" departSpeed="0.00" departDelay="0.98" arrival="203.00" arrivalLane="40265777#1_1" arrivalPos="65.39" arrivalSpeed="14.19" duration="96.00" routeLength="1182.13" waitingTime="0.00" waitingCount="0" stopTime="0.00" timeLoss="16.67" rerouteNo="0" devices="tripinfo_veh171" vType="motorcycle" speedFactor="1.10" vaporized=""/>
    <tripinfo id="veh121" depart="76.00" departLane="43546460#7_1" departPos="69.57" departSpeed="0.00" departDelay="0.98" arrival="204.00" arrivalLane="-48778473#0_1" arrivalPos="21.31" arrivalSpeed="15.32" duration="128.00" routeLength="1791.29" waitingTime="0.00" waitingCount="0" stopTime="0.00" timeLoss="16.00" rerouteNo="0" devices="tripinfo_veh121" vType="passenger" speedFactor="1.18" vaporized=""/>
    <tripinfo id="veh256" depart="159.00" departLane="-1136279388_0" departPos="29.95" departSpeed="0.00" departDelay="0.28" arrival="205.00" arrivalLane="48736619_1" arrivalPos="65.02" arrivalSpeed="12.27" duration="46.00" routeLength="461.12" waitingTime="0.00" waitingCount="0" stopTime="0.00" timeLoss="7.64" rerouteNo="0" devices="tripinfo_veh256" vType="passenger" speedFactor="0.94" vaporized=""/>
    <tripinfo id="veh77" depart="48.00" departLane="945793486#0_0" departPos="2.87" departSpeed="0.00" departDelay="0.26" arrival="206.00" arrivalLane="40236228#0_1" arrivalPos="90.63" arrivalSpeed="13.11" duration="158.00" routeLength="1571.41" waitingTime="0.00" waitingCount="0" stopTime="0.00" timeLoss="29.95" rerouteNo="0" devices="tripinfo_veh77" vType="delivery" speedFactor="0.98" vaporized=""/>
    <tripinfo id="veh40" depart="25.00" departLane="-1136301812#1_1" departPos="6.50" departSpeed="0.00" departDelay="0.20" arrival="207.00" arrivalLane="40330575#3_1" arrivalPos="23.10" arrivalSpeed="15.68" duration="182.00" routeLength="1578.43" waitingTime="35.00" waitingCount="3" stopTime="0.00" timeLoss="77.79" rerouteNo="0" devices="tripinfo_veh40" vType="passenger" speedFactor="1.17" vaporized=""/>
    <tripinfo id="veh153" depart="95.00" departLane="43573769#1_1" departPos="32.86" departSpeed="0.00" departDelay="0.14" arrival="213.00" arrivalLane="-43544202#0_1" arrivalPos="273.71" arrivalSpeed="13.02" duration="118.00" routeLength="1344.81" waitingTime="0.00" waitingCount="0" stopTime="0.00" timeLoss="17.31" rerouteNo="0" devices="tripinfo_veh153" vType="passenger" speedFactor="1.00" vaporized=""/>
    <tripinfo id="veh64" depart="40.00" departLane="-48778499#0_1" departPos="25.64" departSpeed="0.00" departDelay="0.32" arrival="215.00" arrivalLane="48736650#2_1" arrivalPos="16.21" arrivalSpeed="10.31" duration="175.00" routeLength="1777.22" waitingTime="0.00" waitingCount="0" stopTime="0.00" timeLoss="23.33" rerouteNo="0" devices="tripinfo_veh64" vType="passenger" speedFactor="0.98" vaporized=""/>
    <tripinfo id="veh95" depart="59.00" departLane="-48736666#0_1" departPos="16.37" departSpeed="0.00" departDelay="0.10" arrival="217.00" arrivalLane="-492965073#5_2" arrivalPos="154.22" arrivalSpeed="14.28" duration="158.00" routeLength="1532.55" waitingTime="9.00" waitingCount="1" stopTime="0.00" timeLoss="34.63" rerouteNo="0" devices="tripinfo_veh95" vType="passenger" speedFactor="1.03" vaporized=""/>
    <tripinfo id="veh34" depart="22.00" departLane="48736656#1_1" departPos="21.53" departSpeed="0.00" departDelay="0.92" arrival="218.00" arrivalLane="-1136284448_1" arrivalPos="34.50" arrivalSpeed="7.95" duration="196.00" routeLength="2362.22" waitingTime="0.00" waitingCount="0" stopTime="0.00" timeLoss="26.72" rerouteNo="0" devices="tripinfo_veh34" vType="passenger" speedFactor="1.04" vaporized=""/>
    <tripinfo id="veh191" depart="119.00" departLane="-48778521#1_1" departPos="20.74" departSpeed="0.00" departDelay="0.58" arrival="218.00" arrivalLane="996486453_1" arrivalPos="111.92" arrivalSpeed="13.44" duration="99.00" routeLength="1031.69" waitingTime="0.00" waitingCount="0" stopTime="0.00" timeLoss="16.13" rerouteNo="0" devices="tripinfo_veh191" vType="delivery" speedFactor="1.01" vaporized=""/>
    <personinfo id="ped13" depart="65.00" type="DEFAULT_PEDTYPE" speedFactor="1.13" duration="155.00" waitingTime="0.00" timeLoss="15.45" traveltime="155.00">
        <walk depart="65.00" departPos="0.00" arrival="220.00" arrivalPos="30.91" duration="155.00" routeLength="218.26" timeLoss="15.45" maxSpeed="1.56"/>
    </personinfo>
    <tripinfo id="veh48" depart="30.00" departLane="43546519#0_1" departPos="43.87" departSpeed="0.00" departDelay="0.24" arrival="221.00" arrivalLane="-43544624#3_1" arrivalPos="179.18" arrivalSpeed="15.26" duration="191.00" routeLength="2441.84" waitingTime="0.00" waitingCount="0" stopTime="0.00" timeLoss="29.73" rerouteNo="0" devices="tripinfo_veh48" vType="passenger" speedFactor="1.12" vaporized=""/>
    <personinfo id="ped39" depart="195.00" type="DEFAULT_PEDTYPE" speedFactor="1.11" duration="31.00" waitingTime="0.00" timeLoss="3.33" traveltime="31.00">
        <walk depart="195.00" departPos="0.00" arrival="226.00" arrivalPos="9.55" duration="31.00" routeLength="42.55" timeLoss="3.33" maxSpeed="1.54"/>
    </personinfo>
    <tripinfo id="veh165" depart="103.00" departLane="273836978#1_1" departPos="31.93" departSpeed="0.00" departDelay="0.70" arrival="226.00" arrivalLane="-492965073#10_1" arrivalPos="59.87" arrivalSpeed="11.06" duration="123.00" routeLength="1321.80" waitingTime="0.00" waitingCount="0" stopTime="0.00" timeLoss="22.60" rerouteNo="0" devices="tripinfo_veh165" vType="motorcycle" speedFactor="1.00" vaporized=""/>
    <tripinfo id="veh223" depart="139.00" departLane="383582854#1_0" departPos="31.33" departSpeed="0.00" departDelay="0.74" arrival="227.00" arrivalLane="-264868333_1" arrivalPos="76.76" arrivalSpeed="13.91" duration="88.00" routeLength="651.01" waitingTime="12.00" waitingCount="1" stopTime="0.00" timeLoss="31.38" rerouteNo="0" devices="tripinfo_veh223" vType="passenger" speedFactor="1.05" vaporized=""/>
    <tripinfo id="veh66" depart="41.00" departLane="-48778485#1_1" departPos="5.75" departSpeed="0.00" departDelay="0.08" arrival="228.00" arrivalLane="-48778441#2_1" arrivalPos="16.22" arrivalSpeed="11.78" duration="187.00" routeLength="2023.83" waitingTime="1.00" waitingCount="1" stopTime="0.00" timeLoss="32.19" rerouteNo="0" devices="tripinfo_veh66" vType="passenger" speedFactor="0.98" vaporized=""/>
    <tripinfo id="veh133" depart="83.00" departLane="-43546105#1_1" departPos="1.08" departSpeed="0.00" departDelay="0.54" arrival="229.00" arrivalLane="-43573478_1" arrivalPos="180.41" arrivalSpeed="11.62" duration="146.00" routeLength="1297.17" waitingTime="14.00" waitingCount="1" stopTime="0.00" timeLoss="34.67" rerouteNo="0" devices="tripinfo_veh133" vType="passenger" speedFactor="0.87" vaporized=""/>
    <tripinfo id="veh11" depart="7.00" departLane="-43547296#1_1" departPos="10.84" departSpeed="0.00" departDelay="0.18" arrival="230.00" arrivalLane="-48778525#0_1" arrivalPos="49.94" arrivalSpeed="14.00" duration="223.00" routeLength="2582.17" waitingTime="1.00" waitingCount="1" stopTime="0.00" timeLoss="37.00" rerouteNo="0" devices="tripinfo_veh11" vType="passenger" speedFactor="1.04" vaporized=""/>
    <tripinfo id="veh168" depart="105.00" departLane="-222605084#7_1" departPos="26.77" departSpeed="0.00" departDelay="0.84" arrival="230.00" arrivalLane="-40334244#2_1" arrivalPos="5.56" arrivalSpeed="8.27" duration="125.00" routeLength="848.39" waitingTime="17.00" waitingCount="3" stopTime="0.00" timeLoss="38.91" rerouteNo="0" devices="tripinfo_veh168" vType="delivery" speedFactor="1.03" vaporized=""/>
    <tripinfo id="veh55" depart="35.00" departLane="-647226814#1_1" departPos="27.80" departSpeed="0.00" departDelay="0.90" arrival="232.00" arrivalLane="859734514#1_0" arrivalPos="56.51" arrivalSpeed="4.60" duration="197.00" routeLength="2065.67" waitingTime="0.00" waitingCount="0" stopTime="0.00" timeLoss="25.95" rerouteNo="0" devices="tripinfo_veh55" vType="delivery" speedFactor="0.96" vaporized=""/>
    <tripinfo id="veh70" depart="44.00" departLane="-1136301818_1" departPos="11.76" departSpeed="0.00" departDelay="0.60" arrival="233.00" arrivalLane="-174818022#0_0" arrivalPos="26.26" arrivalSpeed="5.50" duration="189.00" routeLength="1310.39" waitingTime="37.00" waitingCount="1" stopTime="0.00" timeLoss="66.91" rerouteNo="0" devices="tripinfo_veh70" vType="passenger" speedFactor="1.05" vaporized=""/>
    <tripinfo id="veh128" depart="80.00" departLane="-40334244#1_1" departPos="3.91" departSpeed="0.00" departDelay="0.64" arrival="233.00" arrivalLane="859732801#1_1" arrivalPos="25.05" arrivalSpeed="14.99" duration="153.00" routeLength="1532.30" waitingTime="20.00" waitingCount="2" stopTime="0.00" timeLoss="51.92" rerouteNo="0" devices="tripinfo_veh128" vType="passenger" speedFactor="1.13" vaporized=""/>
    <tripinfo id="truck24" depart="26.00" departLane="33913538#0_1" departPos="12.10" departSpeed="0.00" departDelay="0.00" arrival="235.00" arrivalLane="-33913538#0_1" arrivalPos="152.84" arrivalSpeed="13.67" duration="209.00" routeLength="2252.76" waitingTime="13.00" waitingCount="1" stopTime="0.00" timeLoss="42.69" rerouteNo="0" devices="tripinfo_truck24" vType="truck" speedFactor="0.98" vaporized=""/>