<?xml version="1.0" encoding="UTF-8"?>

<!-- generated on 2025-06-12 12:30:13 by Eclipse SUMO sumo Version 1.22.0
<sumoConfiguration xmlns:xsi="http://www.w3.org/2001/XMLSchema-instance" xsi:noNamespaceSchemaLocation="http://sumo.dlr.de/xsd/sumoConfiguration.xsd">

    <input>
        <net-file value="osm.net.xml"/>
        <route-files value="full.rou.xml, ped.rou.xml, truck.rou.xml"/>
        <additional-files value="osm.poly.xml, vtypes.xml"/>
    </input>

    <output>
        <summary-output value="summary.xml"/>
        <tripinfo-output value="E:\licenta\oras-mediu\2025-06-05-11-45-23\baseline_outputs\tripinfo_baseline_ep1.xml"/>
    </output>

    <processing>
        <ignore-route-errors value="true"/>
        <tls.actuated.jam-threshold value="30"/>
    </processing>

    <routing>
        <device.rerouting.adaptation-steps value="18"/>
        <device.rerouting.adaptation-interval value="10"/>
    </routing>

    <report>
        <verbose value="true"/>
        <duration-log.statistics value="true"/>
        <no-step-log value="true"/>
    </report>

    <traci_server>
        <remote-port value="64441"/>
    </traci_server>

    <gui_only>
        <gui-settings-file value="osm.view.xml"/>
    </gui_only>

</sumoConfiguration>
-->

<tripinfos xmlns:xsi="http://www.w3.org/2001/XMLSchema-instance" xsi:noNamespaceSchemaLocation="http://sumo.dlr.de/xsd/tripinfo_file.xsd">
    <tripinfo id="veh34" depart="25.00" departLane="48778446#2_1" departPos="4.60" departSpeed="0.00" departDelay="0.86" arrival="59.00" arrivalLane="43547579#3_1" arrivalPos="115.26" arrivalSpeed="14.05" duration="34.00" routeLength="387.42" waitingTime="0.00" waitingCount="0" stopTime="0.00" timeLoss="6.51" rerouteNo="0" devices="tripinfo_veh34" vType="passenger" speedFactor="1.04" vaporized=""/>
    <tripinfo id="veh12" depart="9.00" departLane="-48778454#1_1" departPos="88.76" departSpeed="0.00" departDelay="0.48" arrival="61.00" arrivalLane="48778446#2_1" arrivalPos="11.20" arrivalSpeed="11.19" duration="52.00" routeLength="222.42" waitingTime="24.00" waitingCount="1" stopTime="0.00" timeLoss="34.06" rerouteNo="0" devices="tripinfo_veh12" vType="delivery" speedFactor="0.97" vaporized=""/>
    <personinfo id="ped5" depart="25.00" type="DEFAULT_PEDTYPE" speedFactor="1.26" duration="54.00" waitingTime="0.00" timeLoss="6.99" traveltime="54.00">
        <walk depart="25.00" departPos="0.00" arrival="79.00" arrivalPos="5.99" duration="54.00" routeLength="82.28" timeLoss="6.99" maxSpeed="1.75"/>
    </personinfo>
    <tripinfo id="veh38" depart="27.00" departLane="945793490#3_1" departPos="1.44" departSpeed="0.00" departDelay="0.02" arrival="89.00" arrivalLane="353939570#8_1" arrivalPos="81.94" arrivalSpeed="13.17" duration="62.00" routeLength="331.11" waitingTime="0.00" waitingCount="0" stopTime="0.00" timeLoss="9.17" rerouteNo="0" devices="tripinfo_veh38" vType="passenger" speedFactor="0.95" vaporized=""/>
    <tripinfo id="veh52" depart="37.00" departLane="43544184#2_1" departPos="3.75" departSpeed="0.00" departDelay="0.08" arrival="94.00" arrivalLane="-43544179#12_1" arrivalPos="77.06" arrivalSpeed="14.25" duration="57.00" routeLength="563.55" waitingTime="0.00" waitingCount="0" stopTime="0.00" timeLoss="18.67" rerouteNo="0" devices="tripinfo_veh52" vType="passenger" speedFactor="1.12" vaporized=""/>
    <tripinfo id="veh1" depart="1.00" departLane="-40299276#1_1" departPos="2.79" departSpeed="0.00" departDelay="0.29" arrival="99.00" arrivalLane="48778441#2_1" arrivalPos="20.46" arrivalSpeed="14.30" duration="98.00" routeLength="992.46" waitingTime="3.00" waitingCount="1" stopTime="0.00" timeLoss="27.08" rerouteNo="0" devices="tripinfo_veh1" vType="passenger" speedFactor="1.08" vaporized=""/>
    <tripinfo id="veh74" depart="53.00" departLane="258551283#1_1" departPos="2.94" departSpeed="0.00" departDelay="0.46" arrival="114.00" arrivalLane="1136289989_1" arrivalPos="16.58" arrivalSpeed="8.75" duration="61.00" routeLength="561.68" waitingTime="1.00" waitingCount="1" stopTime="0.00" timeLoss="17.57" rerouteNo="0" devices="tripinfo_veh74" vType="passenger" speedFactor="1.06" vaporized=""/>
    <tripinfo id="veh25" depart="18.00" departLane="48778504_1" departPos="53.43" departSpeed="0.00" departDelay="0.25" arrival="116.00" arrivalLane="-647383048_1" arrivalPos="106.54" arrivalSpeed="14.55" duration="98.00" routeLength="893.54" waitingTime="13.00" waitingCount="1" stopTime="0.00" timeLoss="36.09" rerouteNo="0" devices="tripinfo_veh25" vType="passenger" speedFactor="1.12" vaporized=""/>
    <tripinfo id="veh80" depart="57.00" departLane="48736650#0_1" departPos="56.38" departSpeed="0.00" departDelay="0.20" arrival="116.00" arrivalLane="-33913538#6_1" arrivalPos="41.80" arrivalSpeed="12.54" duration="59.00" routeLength="686.37" waitingTime="0.00" waitingCount="0" stopTime="0.00" timeLoss="7.23" rerouteNo="0" devices="tripinfo_veh80" vType="delivery" speedFactor="0.98" vaporized=""/>
    <tripinfo id="veh56" depart="40.00" departLane="-48778510#0_1" departPos="1.66" departSpeed="0.00" departDelay="0.24" arrival="129.00" arrivalLane="40330575#3_1" arrivalPos="23.10" arrivalSpeed="11.55" duration="89.00" routeLength="866.90" waitingTime="0.00" waitingCount="0" stopTime="0.00" timeLoss="16.08" rerouteNo="0" devices="tripinfo_veh56" vType="passenger" speedFactor="0.91" vaporized=""/>
    <tripinfo id="veh57" depart="41.00" departLane="859734514#0_0" departPos="10.97" departSpeed="0.00" departDelay="0.53" arrival="131.00" arrivalLane="43573573#0_1" arrivalPos="20.39" arrivalSpeed="11.10" duration="90.00" routeLength="570.62" waitingTime="9.00" waitingCount="1" stopTime="0.00" timeLoss="28.72" rerouteNo="0" devices="tripinfo_veh57" vType="passenger" speedFactor="0.95" vaporized=""/>
    <tripinfo id="veh85" depart="61.00" departLane="43547017#5_1" departPos="0.75" departSpeed="0.00" departDelay="0.65" arrival="131.00" arrivalLane="67736383_1" arrivalPos="44.81" arrivalSpeed="13.20" duration="70.00" routeLength="663.23" waitingTime="0.00" waitingCount="0" stopTime="0.00" timeLoss="17.66" rerouteNo="0" devices="tripinfo_veh85" vType="passenger" speedFactor="0.98" vaporized=""/>
    <tripinfo id="veh22" depart="16.00" departLane="-48778504_1" departPos="177.24" departSpeed="0.00" departDelay="0.38" arrival="133.00" arrivalLane="-48778514#1_1" arrivalPos="255.62" arrivalSpeed="14.72" duration="117.00" routeLength="1266.36" waitingTime="8.00" waitingCount="1" stopTime="0.00" timeLoss="32.53" rerouteNo="0" devices="tripinfo_veh22" vType="passenger" speedFactor="1.13" vaporized=""/>
    <tripinfo id="veh23" depart="17.00" departLane="-258551279_0" departPos="29.28" departSpeed="0.00" departDelay="0.67" arrival="135.00" arrivalLane="-43544001#2_1" arrivalPos="52.62" arrivalSpeed="11.16" duration="118.00" routeLength="1075.05" waitingTime="0.00" waitingCount="0" stopTime="0.00" timeLoss="12.72" rerouteNo="0" devices="tripinfo_veh23" vType="passenger" speedFactor="0.89" vaporized=""/>
    <tripinfo id="veh43" depart="31.00" departLane="-48736658_1" departPos="47.68" departSpeed="0.00" departDelay="0.47" arrival="142.00" arrivalLane="-264868333_1" arrivalPos="76.76" arrivalSpeed="13.84" duration="111.00" routeLength="648.97" waitingTime="44.00" waitingCount="1" stopTime="0.00" timeLoss="63.38" rerouteNo="0" devices="tripinfo_veh43" vType="passenger" speedFactor="1.05" vaporized=""/>
    <tripinfo id="veh59" depart="42.00" departLane="-984508804_0" departPos="1.06" departSpeed="0.00" departDelay="0.11" arrival="143.00" arrivalLane="-256555440#1_1" arrivalPos="58.59" arrivalSpeed="13.04" duration="101.00" routeLength="1030.01" waitingTime="0.00" waitingCount="0" stopTime="0.00" timeLoss="17.15" rerouteNo="0" devices="tripinfo_veh59" vType="delivery" speedFactor="0.96" vaporized=""/>
    <tripinfo id="veh26" depart="19.00" departLane="48788485#3_1" departPos="107.83" departSpeed="0.00" departDelay="0.54" arrival="144.00" arrivalLane="-43573547#1_1" arrivalPos="26.16" arrivalSpeed="12.59" duration="125.00" routeLength="1354.49" waitingTime="0.00" waitingCount="0" stopTime="0.00" timeLoss="22.13" rerouteNo="0" devices="tripinfo_veh26" vType="passenger" speedFactor="0.99" vaporized=""/>
    <tripinfo id="veh20" depart="15.00" departLane="996984133_1" departPos="60.79" departSpeed="0.00" departDelay="0.80" arrival="146.00" arrivalLane="222605084#6_0" arrivalPos="0.20" arrivalSpeed="4.82" duration="131.00" routeLength="928.47" waitingTime="0.00" waitingCount="0" stopTime="0.00" timeLoss="21.37" rerouteNo="0" devices="tripinfo_veh20" vType="passenger" speedFactor="0.87" vaporized=""/>
    <tripinfo id="veh75" depart="54.00" departLane="-43546379_1" departPos="88.63" departSpeed="0.00" departDelay="0.75" arrival="149.00" arrivalLane="-48797765#1_1" arrivalPos="28.98" arrivalSpeed="10.69" duration="95.00" routeLength="777.95" waitingTime="0.00" waitingCount="0" stopTime="0.00" timeLoss="22.63" rerouteNo="0" devices="tripinfo_veh75" vType="passenger" speedFactor="0.86" vaporized=""/>
    <tripinfo id="veh46" depart="33.00" departLane="996984134_0" departPos="39.45" departSpeed="0.00" departDelay="0.34" arrival="150.00" arrivalLane="945793491#0_1" arrivalPos="34.62" arrivalSpeed="5.22" duration="117.00" routeLength="892.90" waitingTime="0.00" waitingCount="0" stopTime="0.00" timeLoss="24.93" rerouteNo="0" devices="tripinfo_veh46" vType="motorcycle" speedFactor="1.00" vaporized=""/>
    <tripinfo id="veh106" depart="76.00" departLane="48778493#0_1" departPos="5.41" departSpeed="0.00" departDelay="0.74" arrival="151.00" arrivalLane="-48778495#1_1" arrivalPos="16.52" arrivalSpeed="9.23" duration="75.00" routeLength="715.15" waitingTime="0.00" waitingCount="0" stopTime="0.00" timeLoss="20.14" rerouteNo="0" devices="tripinfo_veh106" vType="passenger" speedFactor="1.12" vaporized=""/>
    <tripinfo id="veh98" depart="70.00" departLane="-304695350#0_1" departPos="0.18" departSpeed="0.00" departDelay="0.42" arrival="153.00" arrivalLane="-48736613#4_1" arrivalPos="22.23" arrivalSpeed="11.76" duration="83.00" routeLength="489.78" waitingTime="30.00" waitingCount="1" stopTime="0.00" timeLoss="46.43" rerouteNo="0" devices="tripinfo_veh98" vType="passenger" speedFactor="1.03" vaporized=""/>
    <tripinfo id="veh14" depart="10.00" departLane="40265775#1_1" departPos="30.29" departSpeed="0.00" departDelay="0.06" arrival="159.00" arrivalLane="48778431#5_1" arrivalPos="316.25" arrivalSpeed="13.05" duration="149.00" routeLength="1775.36" waitingTime="0.00" waitingCount="0" stopTime="0.00" timeLoss="19.56" rerouteNo="0" devices="tripinfo_veh14" vType="emergency" speedFactor="1.00" vaporized=""/>
    <tripinfo id="veh81" depart="58.00" departLane="43573478_1" departPos="156.03" departSpeed="0.00" departDelay="0.49" arrival="160.00" arrivalLane="222609002#2_1" arrivalPos="15.40" arrivalSpeed="13.56" duration="102.00" routeLength="1185.35" waitingTime="1.00" waitingCount="1" stopTime="0.00" timeLoss="19.55" rerouteNo="0" devices="tripinfo_veh81" vType="passenger" speedFactor="1.06" vaporized=""/>
    <tripinfo id="veh7" depart="5.00" departLane="-143207979#3_1" departPos="18.03" departSpeed="0.00" departDelay="0.03" arrival="172.00" arrivalLane="-223883703_0" arrivalPos="83.93" arrivalSpeed="6.00" duration="167.00" routeLength="1974.59" waitingTime="3.00" waitingCount="1" stopTime="0.00" timeLoss="29.13" rerouteNo="0" devices="tripinfo_veh7" vType="passenger" speedFactor="1.12" vaporized=""/>
    <tripinfo id="veh21" depart="15.00" departLane="-671642324_1" departPos="4.75" departSpeed="0.00" departDelay="0.09" arrival="175.00" arrivalLane="-492965073#7_1" arrivalPos="34.78" arrivalSpeed="14.08" duration="160.00" routeLength="1669.78" waitingTime="11.00" waitingCount="2" stopTime="0.00" timeLoss="40.25" rerouteNo="0" devices="tripinfo_veh21" vType="passenger" speedFactor="1.03" vaporized=""/>
    <tripinfo id="veh139" depart="99.00" departLane="40304754#4_1" departPos="87.73" departSpeed="0.00" departDelay="0.31" arrival="179.00" arrivalLane="256555440#0_1" arrivalPos="59.99" arrivalSpeed="15.51" duration="80.00" routeLength="769.61" waitingTime="0.00" waitingCount="0" stopTime="0.00" timeLoss="25.24" rerouteNo="0" devices="tripinfo_veh139" vType="passenger" speedFactor="1.13" vaporized=""/>
    <tripinfo id="veh63" depart="45.00" departLane="-40299739#0_1" departPos="53.64" departSpeed="0.00" departDelay="0.27" arrival="180.00" arrivalLane="48778453_1" arrivalPos="29.18" arrivalSpeed="10.78" duration="135.00" routeLength="1155.29" waitingTime="22.00" waitingCount="1" stopTime="0.00" timeLoss="41.25" rerouteNo="0" devices="tripinfo_veh63" vType="passenger" speedFactor="0.92" vaporized=""/>
    <tripinfo id="veh76" depart="54.00" departLane="1135855898_0" departPos="25.86" departSpeed="0.00" departDelay="0.04" arrival="181.00" arrivalLane="-40306149_1" arrivalPos="62.47" arrivalSpeed="12.32" duration="127.00" routeLength="1210.77" waitingTime="0.00" waitingCount="0" stopTime="0.00" timeLoss="21.33" rerouteNo="0" devices="tripinfo_veh76" vType="passenger" speedFactor="0.91" vaporized=""/>
    <tripinfo id="veh29" depart="21.00" departLane="-43544001#11_1" departPos="10.50" departSpeed="0.00" departDelay="0.41" arrival="182.00" arrivalLane="-223883703_0" arrivalPos="83.93" arrivalSpeed="5.14" duration="161.00" routeLength="1599.46" waitingTime="0.00" waitingCount="0" stopTime="0.00" timeLoss="22.28" rerouteNo="0" devices="tripinfo_veh29" vType="passenger" speedFactor="0.94" vaporized=""/>
    <tripinfo id="veh42" depart="30.00" departLane="-671642291_1" departPos="33.81" departSpeed="0.00" departDelay="0.18" arrival="183.00" arrivalLane="354259933#3_1" arrivalPos="57.36" arrivalSpeed="15.54" duration="153.00" routeLength="1971.15" waitingTime="0.00" waitingCount="0" stopTime="0.00" timeLoss="28.73" rerouteNo="0" devices="tripinfo_veh42" vType="passenger" speedFactor="1.17" vaporized=""/>
    <tripinfo id="veh50" depart="36.00" departLane="40345930_1" departPos="18.74" departSpeed="0.00" departDelay="0.50" arrival="183.00" arrivalLane="E23_2" arrivalPos="246.50" arrivalSpeed="13.49" duration="147.00" routeLength="1503.06" waitingTime="17.00" waitingCount="2" stopTime="0.00" timeLoss="39.87" rerouteNo="0" devices="tripinfo_veh50" vType="passenger" speedFactor="1.02" vaporized=""/>
    <tripinfo id="veh16" depart="12.00" departLane="-859728207_0" departPos="17.82" departSpeed="0.00" departDelay="0.64" arrival="185.00" arrivalLane="647741479_1" arrivalPos="102.89" arrivalSpeed="13.88" duration="173.00" routeLength="1436.98" waitingTime="31.00" waitingCount="2" stopTime="0.00" timeLoss="55.62" rerouteNo="0" devices="tripinfo_veh16" vType="passenger" speedFactor="1.02" vaporized=""/>
    <tripinfo id="veh71" depart="51.00" departLane="-859732803#1_0" departPos="11.23" departSpeed="0.00" departDelay="0.59" arrival="186.00" arrivalLane="1250915721#0_1" arrivalPos="14.94" arrivalSpeed="5.15" duration="135.00" routeLength="877.99" waitingTime="15.00" waitingCount="1" stopTime="0.00" timeLoss="45.95" rerouteNo="0" devices="tripinfo_veh71" vType="motorcycle" speedFactor="0.94" vaporized=""/>
    <personinfo id="ped14" depart="70.00" type="DEFAULT_PEDTYPE" speedFactor="1.05" duration="117.00" waitingTime="0.00" timeLoss="12.01" traveltime="117.00">
        <walk depart="70.00" departPos="0.00" arrival="187.00" arrivalPos="30.00" duration="117.00" routeLength="152.99" timeLoss="12.01" maxSpeed="1.46"/>
    </personinfo>
    <tripinfo id="veh83" depart="59.00" departLane="-43544197#6_1" departPos="22.89" departSpeed="0.00" departDelay="0.07" arrival="188.00" arrivalLane="40265775#1_1" arrivalPos="76.38" arrivalSpeed="14.33" duration="129.00" routeLength="1517.18" waitingTime="0.00" waitingCount="0" stopTime="0.00" timeLoss="23.74" rerouteNo="0" devices="tripinfo_veh83" vType="passenger" speedFactor="1.08" vaporized=""/>
    <tripinfo id="veh90" depart="64.00" departLane="-647621858_0" departPos="17.23" departSpeed="0.00" departDelay="0.10" arrival="192.00" arrivalLane="-250295383#6_1" arrivalPos="25.71" arrivalSpeed="11.24" duration="128.00" routeLength="1029.81" waitingTime="21.00" waitingCount="3" stopTime="0.00" timeLoss="50.83" rerouteNo="0" devices="tripinfo_veh90" vType="passenger" speedFactor="1.10" vaporized=""/>
    <tripinfo id="veh163" depart="116.00" departLane="-40330571#3_1" departPos="180.50" departSpeed="0.00" departDelay="0.27" arrival="192.00" arrivalLane="-222605084#4_1" arrivalPos="16.56" arrivalSpeed="5.09" duration="76.00" routeLength="576.68" waitingTime="1.00" waitingCount="1" stopTime="0.00" timeLoss="14.93" rerouteNo="0" devices="tripinfo_veh163" vType="passenger" speedFactor="1.15" vaporized=""/>
    <tripinfo id="veh164" depart="117.00" departLane="647262856_1" departPos="222.63" departSpeed="0.00" departDelay="0.56" arrival="194.00" arrivalLane="43544197#6_1" arrivalPos="40.81" arrivalSpeed="12.15" duration="77.00" routeLength="746.71" waitingTime="0.00" waitingCount="0" stopTime="0.00" timeLoss="15.71" rerouteNo="0" devices="tripinfo_veh164" vType="delivery" speedFactor="0.94" vaporized=""/>
    <tripinfo id="veh130" depart="93.00" departLane="996984132_0" departPos="54.17" departSpeed="0.00" departDelay="0.70" arrival="199.00" arrivalLane="-40304754#4_1" arrivalPos="101.37" arrivalSpeed="11.13" duration="106.00" routeLength="1012.23" waitingTime="6.00" waitingCount="1" stopTime="0.00" timeLoss="26.97" rerouteNo="0" devices="tripinfo_veh130" vType="motorcycle" speedFactor="1.01" vaporized=""/>
    <tripinfo id="veh119" depart="85.00" departLane="48778505#2_1" departPos="32.95" departSpeed="0.00" departDelay="0.51" arrival="200.00" arrivalLane="-43544001#13_1" arrivalPos="78.45" arrivalSpeed="13.69" duration="115.00" routeLength="1352.43" waitingTime="0.00" waitingCount="0" stopTime="0.00" timeLoss="15.50" rerouteNo="0" devices="tripinfo_veh119" vType="delivery" speedFactor="1.01" vaporized=""/>
    <tripinfo id="veh161" depart="115.00" departLane="-43546088_1" departPos="25.03" departSpeed="0.00" departDelay="0.69" arrival="201.00" arrivalLane="43546039#0_1" arrivalPos="195.13" arrivalSpeed="13.22" duration="86.00" routeLength="975.07" waitingTime="0.00" waitingCount="0" stopTime="0.00" timeLoss="13.44" rerouteNo="0" devices="tripinfo_veh161" vType="passenger" speedFactor="1.00" vaporized=""/>
    <tripinfo id="veh58" depart="42.00" departLane="-43546688#2_1" departPos="11.89" departSpeed="0.00" departDelay="0.82" arrival="202.00" arrivalLane="647226815#1_1" arrivalPos="42.65" arrivalSpeed="13.93" duration="160.00" routeLength="1862.14" waitingTime="0.00" waitingCount="0" stopTime="0.00" timeLoss="25.86" rerouteNo="0" devices="tripinfo_veh58" vType="passenger" speedFactor="1.02" vaporized=""/>
    <tripinfo id="veh41" depart="30.00" departLane="647770574_1" departPos="105.04" departSpeed="0.00" departDelay="0.89" arrival="203.00" arrivalLane="-383582503_0" arrivalPos="105.76" arrivalSpeed="4.76" duration="173.00" routeLength="1621.41" waitingTime="19.00" waitingCount="2" stopTime="0.00" timeLoss="48.74" rerouteNo="0" devices="tripinfo_veh41" vType="passenger" speedFactor="1.06" vaporized=""/>
    <tripinfo id="veh95" depart="68.00" departLane="-222609002#3_1" departPos="84.22" departSpeed="0.00" departDelay="0.55" arrival="203.00" arrivalLane="-1250915720#0_1" arrivalPos="2.68" arrivalSpeed="4.86" duration="135.00" routeLength="919.97" waitingTime="14.00" waitingCount="1" stopTime="0.00" timeLoss="45.52" rerouteNo="0" devices="tripinfo_veh95" vType="passenger" speedFactor="0.99" vaporized=""/>
    <tripinfo id="veh108" depart="77.00" departLane="-33910068#0_1" departPos="84.69" departSpeed="0.00" departDelay="0.32" arrival="203.00" arrivalLane="33910068#1_1" arrivalPos="524.36" arrivalSpeed="13.34" duration="126.00" routeLength="1401.07" waitingTime="0.00" waitingCount="0" stopTime="0.00" timeLoss="22.92" rerouteNo="0" devices="tripinfo_veh108" vType="passenger" speedFactor="1.03" vaporized=""/>
    <tripinfo id="veh30" depart="22.00" departLane="174821558#1_0" departPos="0.17" departSpeed="0.00" departDelay="0.70" arrival="206.00" arrivalLane="48736620#1_1" arrivalPos="60.01" arrivalSpeed="14.62" duration="184.00" routeLength="2052.16" waitingTime="3.00" waitingCount="1" stopTime="0.00" timeLoss="27.32" rerouteNo="0" devices="tripinfo_veh30" vType="passenger" speedFactor="1.10" vaporized=""/>
    <tripinfo id="veh28" depart="20.00" departLane="1135856746#0_1" departPos="1.97" departSpeed="0.00" departDelay="0.12" arrival="210.00" arrivalLane="40266620_1" arrivalPos="32.51" arrivalSpeed="12.46" duration="190.00" routeLength="1403.90" waitingTime="45.00" waitingCount="2" stopTime="0.00" timeLoss="76.49" rerouteNo="0" devices="tripinfo_veh28" vType="motorcycle" speedFactor="1.02" vaporized=""/>
    <tripinfo id="veh185" depart="132.00" departLane="-43573547#6_1" departPos="50.06" departSpeed="0.00" departDelay="0.65" arrival="210.00" arrivalLane="-48778518_1" arrivalPos="22.20" arrivalSpeed="6.54" duration="78.00" routeLength="804.43" waitingTime="0.00" waitingCount="0" stopTime="0.00" timeLoss="10.80" rerouteNo="0" devices="tripinfo_veh185" vType="passenger" speedFactor="0.91" vaporized=""/>
    <tripinfo id="veh114" depart="81.00" departLane="-859728622_0" departPos="58.85" departSpeed="0.00" departDelay="0.06" arrival="211.00" arrivalLane="-43547296#0_1" arrivalPos="163.38" arrivalSpeed="13.60" duration="130.00" routeLength="1150.24" waitingTime="0.00" waitingCount="0" stopTime="0.00" timeLoss="18.30" rerouteNo="0" devices="tripinfo_veh114" vType="passenger" speedFactor="1.02" vaporized=""/>
    <tripinfo id="veh137" depart="98.00" departLane="223942064#0.267_0" departPos="42.35" departSpeed="0.00" departDelay="0.73" arrival="214.00" arrivalLane="48736613#3_1" arrivalPos="42.68" arrivalSpeed="13.06" duration="116.00" routeLength="1398.81" waitingTime="0.00" waitingCount="0" stopTime="0.00" timeLoss="11.26" rerouteNo="0" devices="tripinfo_veh137" vType="passenger" speedFactor="0.97" vaporized=""/>
    <personinfo id="ped0" depart="0.00" type="DEFAULT_PEDTYPE" speedFactor="1.03" duration="217.00" waitingTime="0.00" timeLoss="21.74" traveltime="217.00">
        <walk depart="0.00" departPos="0.00" arrival="217.00" arrivalPos="10.74" duration="217.00" routeLength="279.41" timeLoss="21.74" maxSpeed="1.43"/>
    </personinfo>
    <tripinfo id="veh11" depart="8.00" departLane="43573573#2_1" departPos="104.07" departSpeed="0.00" departDelay="0.19" arrival="217.00" arrivalLane="-984521612#0_0" arrivalPos="12.48" arrivalSpeed="5.44" duration="209.00" routeLength="2290.92" waitingTime="0.00" waitingCount="0" stopTime="0.00" timeLoss="38.39" rerouteNo="0" devices="tripinfo_veh11" vType="passenger" speedFactor="1.04" vaporized=""/>
    <tripinfo id="veh79" depart="57.00" departLane="-43546039#1_1" departPos="76.29" departSpeed="0.00" departDelay="0.91" arrival="217.00" arrivalLane="43546105#2_1" arrivalPos="10.89" arrivalSpeed="13.02" duration="160.00" routeLength="1767.77" waitingTime="0.00" waitingCount="0" stopTime="0.00" timeLoss="28.95" rerouteNo="0" devices="tripinfo_veh79" vType="emergency" speedFactor="1.00" vaporized=""/>
    <tripinfo id="veh177" depart="126.00" departLane="-48778494#1_1" departPos="2.43" departSpeed="0.00" departDelay="0.33" arrival="222.00" arrivalLane="-40345956#1_1" arrivalPos="78.52" arrivalSpeed="13.55" duration="96.00" routeLength="1078.50" waitingTime="0.00" waitingCount="0" stopTime="0.00" timeLoss="17.24" rerouteNo="0" devices="tripinfo_veh177" vType="passenger" speedFactor="1.04" vaporized=""/>
    <tripinfo id="veh33" depart="24.00" departLane="530106516#0_1" departPos="54.98" departSpeed="0.00" departDelay="0.57" arrival="223.00" arrivalLane="48778505#3_1" arrivalPos="13.21" arrivalSpeed="14.17" duration="199.00" routeLength="2024.96" waitingTime="21.00" waitingCount="1" stopTime="0.00" timeLoss="55.98" rerouteNo="0" devices="tripinfo_veh33" vType="passenger" speedFactor="1.07" vaporized=""/>
    <tripinfo id="veh66" depart="47.00" departLane="383582509_0" departPos="39.36" departSpeed="0.00" departDelay="0.14" arrival="223.00" arrivalLane="984521612#1_0" arrivalPos="29.21" arrivalSpeed="5.07" duration="176.00" routeLength="1453.93" waitingTime="34.00" waitingCount="1" stopTime="0.00" timeLoss="58.61" rerouteNo="0" devices="tripinfo_veh66" vType="passenger" speedFactor="1.02" vaporized=""/>
    <tripinfo id="veh104" depart="74.00" departLane="48778473#1_1" departPos="2.12" departSpeed="0.00" departDelay="0.16" arrival="226.00" arrivalLane="-647640187_0" arrivalPos="72.26" arrivalSpeed="5.46" duration="152.00" routeLength="1299.71" waitingTime="26.00" waitingCount="1" stopTime="0.00" timeLoss="49.13" rerouteNo="0" devices="tripinfo_veh104" vType="passenger" speedFactor="1.03" vaporized=""/>
    <tripinfo id="veh62" depart="45.00" departLane="647741479_1" departPos="2.74" departSpeed="0.00" departDelay="0.98" arrival="227.00" arrivalLane="143207982#3_1" arrivalPos="25.25" arrivalSpeed="14.21" duration="182.00" routeLength="1273.79" waitingTime="58.00" waitingCount="3" stopTime="0.00" timeLoss="89.57" rerouteNo="0" devices="tripinfo_veh62" vType="passenger" speedFactor="1.03" vaporized=""/>
    <tripinfo id="veh284" depart="202.00" departLane="945794107_1" departPos="46.47" departSpeed="0.00" departDelay="0.36" arrival="228.00" arrivalLane="-48778508#2_1" arrivalPos="0.58" arrivalSpeed="14.45" duration="26.00" routeLength="217.30" waitingTime="0.00" waitingCount="0" stopTime="0.00" timeLoss="7.51" rerouteNo="0" devices="tripinfo_veh284" vType="passenger" speedFactor="1.08" vaporized=""/>
    <tripinfo id="veh36" depart="26.00" departLane="33909840#0_1" departPos="58.92" departSpeed="0.00" departDelay="0.44" arrival="229.00" arrivalLane="-48736613#1_1" arrivalPos="77.29" arrivalSpeed="13.84" duration="203.00" routeLength="1858.65" waitingTime="44.00" waitingCount="2" stopTime="0.00" timeLoss="66.72" rerouteNo="0" devices="tripinfo_veh36" vType="emergency" speedFactor="1.00" vaporized=""/>
    <tripinfo id="veh224" depart="160.00" departLane="-1135854210_1" departPos="11.15" departSpeed="0.00" departDelay="0.96" arrival="230.00" arrivalLane="-1135772296#0_0" arrivalPos="22.09" arrivalSpeed="4.90" duration="70.00" routeLength="307.69" waitingTime="23.00" waitingCount="1" stopTime="0.00" timeLoss="38.08" rerouteNo="0" devices="tripinfo_veh224" vType="passenger" speedFactor="0.94" vaporized=""/>
    <tripinfo id="veh48" depart="35.00" departLane="43573573#2_1" departPos="26.27" departSpeed="0.00" departDelay="0.92" arrival="232.00" arrivalLane="40315648#0_1" arrivalPos="94.16" arrivalSpeed="12.22" duration="197.00" routeLength="2045.05" waitingTime="0.00" waitingCount="0" stopTime="0.00" timeLoss="28.59" rerouteNo="0" devices="tripinfo_veh48" vType="motorcycle" speedFactor="0.90" vaporized=""/>
    <tripinfo id="veh160" depart="114.00" departLane="48778431#2_2" departPos="50.78" departSpeed="0.00" departDelay="0.40" arrival="232.00" arrivalLane="48778500#0_1" arrivalPos="18.03" arrivalSpeed="9.56" duration="118.00" routeLength="1145.07" waitingTime="0.00" waitingCount="0" stopTime="0.00" timeLoss="21.68" rerouteNo="0" devices="tripinfo_veh160" vType="passenger" speedFactor="0.90" vaporized=""/>
    <personinfo id="ped12" depart="60.00" type="DEFAULT_PEDTYPE" speedFactor="0.92" duration="174.00" waitingTime="0.00" timeLoss="20.21" traveltime="174.00">
        <walk depart="60.00" departPos="0.00" arrival="234.00" arrivalPos="13.46" duration="174.00" routeLength="195.59" timeLoss="20.21" maxSpeed="1.27"/>
    </personinfo>
    <tripinfo id="veh87" depart="62.00" departLane="48797772_1" departPos="13.37" departSpeed="0.00" departDelay="0.23" arrival="234.00" arrivalLane="40314583#6_1" arrivalPos="41.79" arrivalSpeed="17.23" duration="172.00" routeLength="1973.58" waitingTime="17.00" waitingCount="1" stopTime="0.00" timeLoss="53.85" rerouteNo="0" devices="tripinfo_veh87" vType="passenger" speedFactor="1.25" vaporized=""/>
    <tripinfo id="veh101" depart="72.00" departLane="264868325_1" departPos="65.19" departSpeed="0.00" departDelay="0.29" arrival="234.00" arrivalLane="-1135855898_0" arrivalPos="54.52" arrivalSpeed="4.75" duration="162.00" routeLength="1512.75" waitingTime="1.00" waitingCount="1" stopTime="0.00" timeLoss="26.79" rerouteNo="0" devices="tripinfo_veh101" vType="passenger" speedFactor="0.89" vaporized=""/>
    <tripinfo id="veh156" depart="111.00" departLane="40236153#0_1" departPos="0.88" departSpeed="0.00" departDelay="0.24" arrival="234.00" arrivalLane="-40330557#2_1" arrivalPos="99.94" arrivalSpeed="12.75" duration="123.00" routeLength="1237.42" waitingTime="6.00" waitingCount="1" stopTime="0.00" timeLoss="29.04" rerouteNo="0" devices="tripinfo_veh156" vType="delivery" speedFactor="0.99" vaporized=""/>
    <tripinfo id="veh6" depart="5.00" departLane="-40299264#0_1" departPos="48.51" departSpeed="0.00" departDelay="0.74" arrival="236.00" arrivalLane="-222609002#4_1" arrivalPos="52.31" arrivalSpeed="12.36" duration="231.00" routeLength="2453.63" waitingTime="8.00" waitingCount="1" stopTime="0.00" timeLoss="36.43" rerouteNo="0" devices="tripinfo_veh6" vType="passenger" speedFactor="0.92" vaporized=""/>
    <tripinfo id="veh69" depart="49.00" departLane="40269009#1_1" departPos="7.17" departSpeed="0.00" departDelay="0.01" arrival="239.00" arrivalLane="353939570#8_2" arrivalPos="81.94" arrivalSpeed="12.59" duration="190.00" routeLength="1806.40" waitingTime="7.00" waitingCount="1" stopTime="0.00" timeLoss="43.69" rerouteNo="0" devices="tripinfo_veh69" vType="passenger" speedFactor="0.98" vaporized=""/>
    <tripinfo id="veh147" depart="105.00" departLane="E9_1" departPos="7.51" departSpeed="0.00" departDelay="0.63" arrival="239.00" arrivalLane="250295383#3_1" arrivalPos="11.98" arrivalSpeed="13.58" duration="134.00" routeLength="1124.02" waitingTime="14.00" waitingCount="1" stopTime="0.00" timeLoss="39.54" rerouteNo="0" devices="tripinfo_veh147" vType="motorcycle" speedFactor="0.98" vaporized=""/>