<?xml version="1.0" encoding="UTF-8"?>

<!-- generated on 2025-06-12 12:34:11 by Eclipse SUMO sumo Version 1.22.0
<sumoConfiguration xmlns:xsi="http://www.w3.org/2001/XMLSchema-instance" xsi:noNamespaceSchemaLocation="http://sumo.dlr.de/xsd/sumoConfiguration.xsd">

    <input>
        <net-file value="osm.net.xml"/>
        <route-files value="full.rou.xml, ped.rou.xml, truck.rou.xml"/>
        <additional-files value="osm.poly.xml, vtypes.xml"/>
    </input>

    <output>
        <summary-output value="summary.xml"/>
        <tripinfo-output value="E:\licenta\oras-mediu\2025-06-05-11-45-23\baseline_outputs\tripinfo_baseline_ep22.xml"/>
    </output>

    <processing>
        <ignore-route-errors value="true"/>
        <tls.actuated.jam-threshold value="30"/>
    </processing>

    <routing>
        <device.rerouting.adaptation-steps value="18"/>
        <device.rerouting.adaptation-interval value="10"/>
    </routing>

    <report>
        <verbose value="true"/>
        <duration-log.statistics value="true"/>
        <no-step-log value="true"/>
    </report>

    <traci_server>
        <remote-port value="64562"/>
    </traci_server>

    <gui_only>
        <gui-settings-file value="osm.view.xml"/>
    </gui_only>

</sumoConfiguration>
-->

<tripinfos xmlns:xsi="http://www.w3.org/2001/XMLSchema-instance" xsi:noNamespaceSchemaLocation="http://sumo.dlr.de/xsd/tripinfo_file.xsd">
    <personinfo id="ped4" depart="20.00" type="DEFAULT_PEDTYPE" speedFactor="0.99" duration="30.00" waitingTime="0.00" timeLoss="3.78" traveltime="30.00">
        <walk depart="20.00" departPos="0.00" arrival="50.00" arrivalPos="12.22" duration="30.00" routeLength="36.21" timeLoss="3.78" maxSpeed="1.38"/>
    </personinfo>
    <tripinfo id="veh28" depart="16.00" departLane="-43573769#1_1" departPos="52.47" departSpeed="0.00" departDelay="0.32" arrival="69.00" arrivalLane="43544138#0_1" arrivalPos="42.14" arrivalSpeed="13.51" duration="53.00" routeLength="524.80" waitingTime="0.00" waitingCount="0" stopTime="0.00" timeLoss="12.70" rerouteNo="0" devices="tripinfo_veh28" vType="motorcycle" speedFactor="1.02" vaporized=""/>
    <tripinfo id="veh36" depart="21.00" departLane="43544001#6_1" departPos="22.42" departSpeed="0.00" departDelay="0.84" arrival="85.00" arrivalLane="143207979#8_1" arrivalPos="38.62" arrivalSpeed="14.31" duration="64.00" routeLength="758.63" waitingTime="0.00" waitingCount="0" stopTime="0.00" timeLoss="12.50" rerouteNo="0" devices="tripinfo_veh36" vType="passenger" speedFactor="1.09" vaporized=""/>
    <tripinfo id="veh22" depart="13.00" departLane="-43546053#1_1" departPos="21.44" departSpeed="0.00" departDelay="0.68" arrival="90.00" arrivalLane="43546039#0_1" arrivalPos="195.13" arrivalSpeed="14.88" duration="77.00" routeLength="748.67" waitingTime="4.00" waitingCount="1" stopTime="0.00" timeLoss="25.70" rerouteNo="0" devices="tripinfo_veh22" vType="passenger" speedFactor="1.13" vaporized=""/>
    <tripinfo id="veh65" depart="37.00" departLane="48778464#3_1" departPos="0.04" departSpeed="0.00" departDelay="0.60" arrival="94.00" arrivalLane="48797768_1" arrivalPos="94.07" arrivalSpeed="14.39" duration="57.00" routeLength="502.09" waitingTime="0.00" waitingCount="0" stopTime="0.00" timeLoss="12.91" rerouteNo="0" devices="tripinfo_veh65" vType="passenger" speedFactor="1.08" vaporized=""/>
    <tripinfo id="veh34" depart="20.00" departLane="470207092#0_1" departPos="46.39" departSpeed="0.00" departDelay="0.96" arrival="107.00" arrivalLane="-40306149_1" arrivalPos="62.47" arrivalSpeed="14.41" duration="87.00" routeLength="703.29" waitingTime="0.00" waitingCount="0" stopTime="0.00" timeLoss="15.87" rerouteNo="0" devices="tripinfo_veh34" vType="passenger" speedFactor="1.04" vaporized=""/>
    <tripinfo id="veh69" depart="39.00" departLane="-48778494#1_1" departPos="12.12" departSpeed="0.00" departDelay="0.36" arrival="112.00" arrivalLane="-48778495#1_1" arrivalPos="16.52" arrivalSpeed="7.16" duration="73.00" routeLength="754.82" waitingTime="0.00" waitingCount="0" stopTime="0.00" timeLoss="15.14" rerouteNo="0" devices="tripinfo_veh69" vType="passenger" speedFactor="1.01" vaporized=""/>
    <personinfo id="ped22" depart="110.00" type="DEFAULT_PEDTYPE" speedFactor="1.02" duration="3.00" waitingTime="0.00" timeLoss="0.55" traveltime="3.00">
        <walk depart="110.00" departPos="0.00" arrival="113.00" arrivalPos="3.46" duration="3.00" routeLength="3.46" timeLoss="0.55" maxSpeed="1.41"/>
    </personinfo>
    <tripinfo id="veh4" depart="3.00" departLane="-48778498#1_1" departPos="5.86" departSpeed="0.00" departDelay="0.76" arrival="115.00" arrivalLane="-43573547#3_1" arrivalPos="51.38" arrivalSpeed="14.04" duration="112.00" routeLength="1185.40" waitingTime="0.00" waitingCount="0" stopTime="0.00" timeLoss="21.04" rerouteNo="0" devices="tripinfo_veh4" vType="passenger" speedFactor="1.02" vaporized=""/>
    <tripinfo id="veh91" depart="51.00" departLane="43544197#4_1" departPos="0.59" departSpeed="0.00" departDelay="0.04" arrival="115.00" arrivalLane="43544197#1_1" arrivalPos="41.01" arrivalSpeed="12.89" duration="64.00" routeLength="607.16" waitingTime="0.00" waitingCount="0" stopTime="0.00" timeLoss="15.50" rerouteNo="0" devices="tripinfo_veh91" vType="passenger" speedFactor="0.97" vaporized=""/>
    <tripinfo id="veh40" depart="23.00" departLane="-492965073#10_1" departPos="52.32" departSpeed="0.00" departDelay="0.60" arrival="121.00" arrivalLane="48797766#1_1" arrivalPos="31.54" arrivalSpeed="12.93" duration="98.00" routeLength="999.63" waitingTime="12.00" waitingCount="1" stopTime="0.00" timeLoss="33.99" rerouteNo="0" devices="tripinfo_veh40" vType="passenger" speedFactor="1.17" vaporized=""/>
    <tripinfo id="veh52" depart="30.00" departLane="-48797765#2_1" departPos="0.02" departSpeed="0.00" departDelay="0.88" arrival="122.00" arrivalLane="40266907#0_1" arrivalPos="33.90" arrivalSpeed="13.17" duration="92.00" routeLength="893.63" waitingTime="0.00" waitingCount="0" stopTime="0.00" timeLoss="19.79" rerouteNo="0" devices="tripinfo_veh52" vType="passenger" speedFactor="0.96" vaporized=""/>
    <tripinfo id="veh169" depart="95.00" departLane="-43544138#6_1" departPos="22.68" departSpeed="0.00" departDelay="0.36" arrival="122.00" arrivalLane="-43547017#0_1" arrivalPos="90.36" arrivalSpeed="13.78" duration="27.00" routeLength="273.53" waitingTime="0.00" waitingCount="0" stopTime="0.00" timeLoss="5.46" rerouteNo="0" devices="tripinfo_veh169" vType="emergency" speedFactor="1.00" vaporized=""/>
    <tripinfo id="veh81" depart="46.00" departLane="-43546935#3_1" departPos="11.60" departSpeed="0.00" departDelay="0.64" arrival="123.00" arrivalLane="-43544001#0_1" arrivalPos="29.90" arrivalSpeed="14.63" duration="77.00" routeLength="910.83" waitingTime="0.00" waitingCount="0" stopTime="0.00" timeLoss="13.30" rerouteNo="0" devices="tripinfo_veh81" vType="passenger" speedFactor="1.06" vaporized=""/>
    <tripinfo id="veh183" depart="103.00" departLane="-43544138#6_1" departPos="30.21" departSpeed="0.00" departDelay="0.52" arrival="124.00" arrivalLane="143207979#7_1" arrivalPos="72.83" arrivalSpeed="10.94" duration="21.00" routeLength="209.40" waitingTime="0.00" waitingCount="0" stopTime="0.00" timeLoss="5.07" rerouteNo="0" devices="tripinfo_veh183" vType="motorcycle" speedFactor="1.00" vaporized=""/>
    <tripinfo id="veh2" depart="2.00" departLane="143207979#8_1" departPos="22.78" departSpeed="0.00" departDelay="0.88" arrival="126.00" arrivalLane="48797774_1" arrivalPos="99.58" arrivalSpeed="13.68" duration="124.00" routeLength="1411.54" waitingTime="0.00" waitingCount="0" stopTime="0.00" timeLoss="26.46" rerouteNo="0" devices="tripinfo_veh2" vType="passenger" speedFactor="1.08" vaporized=""/>
    <tripinfo id="veh56" depart="32.00" departLane="48797767#1_1" departPos="12.88" departSpeed="0.00" departDelay="0.64" arrival="126.00" arrivalLane="48778457#1_1" arrivalPos="25.26" arrivalSpeed="12.53" duration="94.00" routeLength="956.63" waitingTime="0.00" waitingCount="0" stopTime="0.00" timeLoss="17.21" rerouteNo="0" devices="tripinfo_veh56" vType="delivery" speedFactor="0.96" vaporized=""/>
    <tripinfo id="veh68" depart="39.00" departLane="48778487#1_1" departPos="104.39" departSpeed="0.00" departDelay="0.92" arrival="126.00" arrivalLane="40305706#1_1" arrivalPos="57.88" arrivalSpeed="13.24" duration="87.00" routeLength="984.08" waitingTime="0.00" waitingCount="0" stopTime="0.00" timeLoss="11.69" rerouteNo="0" devices="tripinfo_veh68" vType="passenger" speedFactor="0.98" vaporized=""/>
    <tripinfo id="veh54" depart="31.00" departLane="1135855898_0" departPos="40.49" departSpeed="0.00" departDelay="0.76" arrival="130.00" arrivalLane="40266907#1_1" arrivalPos="33.57" arrivalSpeed="12.31" duration="99.00" routeLength="952.90" waitingTime="0.00" waitingCount="0" stopTime="0.00" timeLoss="20.22" rerouteNo="0" devices="tripinfo_veh54" vType="passenger" speedFactor="0.95" vaporized=""/>
    <tripinfo id="veh27" depart="16.00" departLane="92198452#1_1" departPos="19.58" departSpeed="0.00" departDelay="0.88" arrival="134.00" arrivalLane="48778489#3_1" arrivalPos="140.23" arrivalSpeed="12.44" duration="118.00" routeLength="1069.15" waitingTime="0.00" waitingCount="0" stopTime="0.00" timeLoss="35.56" rerouteNo="0" devices="tripinfo_veh27" vType="passenger" speedFactor="0.97" vaporized=""/>
    <tripinfo id="veh37" depart="21.00" departLane="48778454#0_1" departPos="4.00" departSpeed="0.00" departDelay="0.28" arrival="134.00" arrivalLane="-40299241#1_1" arrivalPos="23.44" arrivalSpeed="12.06" duration="113.00" routeLength="1031.30" waitingTime="13.00" waitingCount="1" stopTime="0.00" timeLoss="30.45" rerouteNo="0" devices="tripinfo_veh37" vType="passenger" speedFactor="0.95" vaporized=""/>
    <tripinfo id="veh166" depart="93.00" departLane="43547579#3_1" departPos="55.02" departSpeed="0.00" departDelay="0.04" arrival="135.00" arrivalLane="250295383#3_1" arrivalPos="11.98" arrivalSpeed="9.11" duration="42.00" routeLength="371.83" waitingTime="0.00" waitingCount="0" stopTime="0.00" timeLoss="11.92" rerouteNo="0" devices="tripinfo_veh166" vType="emergency" speedFactor="1.00" vaporized=""/>
    <tripinfo id="veh97" depart="55.00" departLane="-48778510#0_1" departPos="2.40" departSpeed="0.00" departDelay="0.68" arrival="142.00" arrivalLane="48778489#3_2" arrivalPos="140.23" arrivalSpeed="13.87" duration="87.00" routeLength="887.62" waitingTime="2.00" waitingCount="1" stopTime="0.00" timeLoss="21.11" rerouteNo="0" devices="tripinfo_veh97" vType="passenger" speedFactor="1.03" vaporized=""/>
    <tripinfo id="veh188" depart="107.00" departLane="-383582854#0_0" departPos="4.83" departSpeed="0.00" departDelay="1.72" arrival="143.00" arrivalLane="383582854#0_0" arrivalPos="13.10" arrivalSpeed="5.62" duration="36.00" routeLength="338.50" waitingTime="0.00" waitingCount="0" stopTime="0.00" timeLoss="8.57" rerouteNo="0" devices="tripinfo_veh188" vType="passenger" speedFactor="1.11" vaporized=""/>
    <tripinfo id="veh63" depart="36.00" departLane="48736607#0_1" departPos="4.38" departSpeed="0.00" departDelay="0.72" arrival="146.00" arrivalLane="48736664#1_1" arrivalPos="36.30" arrivalSpeed="12.22" duration="110.00" routeLength="1076.32" waitingTime="0.00" waitingCount="0" stopTime="0.00" timeLoss="27.98" rerouteNo="0" devices="tripinfo_veh63" vType="passenger" speedFactor="1.02" vaporized=""/>
    <tripinfo id="veh151" depart="85.00" departLane="48788485#5_1" departPos="66.02" departSpeed="0.00" departDelay="0.44" arrival="152.00" arrivalLane="-43544197#5_1" arrivalPos="40.70" arrivalSpeed="11.78" duration="67.00" routeLength="671.17" waitingTime="0.00" waitingCount="0" stopTime="0.00" timeLoss="13.89" rerouteNo="0" devices="tripinfo_veh151" vType="delivery" speedFactor="0.97" vaporized=""/>
    <tripinfo id="veh15" depart="9.00" departLane="48736612#3_1" departPos="48.71" departSpeed="0.00" departDelay="0.60" arrival="160.00" arrivalLane="-48736638#2_1" arrivalPos="32.61" arrivalSpeed="11.13" duration="151.00" routeLength="1325.95" waitingTime="26.00" waitingCount="3" stopTime="0.00" timeLoss="54.69" rerouteNo="0" devices="tripinfo_veh15" vType="passenger" speedFactor="1.02" vaporized=""/>
    <tripinfo id="veh11" depart="7.00" departLane="223942064#1_0" departPos="0.72" departSpeed="0.00" departDelay="0.84" arrival="171.00" arrivalLane="222609002#0_1" arrivalPos="115.28" arrivalSpeed="6.15" duration="164.00" routeLength="1894.49" waitingTime="0.00" waitingCount="0" stopTime="0.00" timeLoss="31.88" rerouteNo="0" devices="tripinfo_veh11" vType="passenger" speedFactor="1.04" vaporized=""/>
    <tripinfo id="veh155" depart="87.00" departLane="-48778502#1_1" departPos="66.13" departSpeed="0.00" departDelay="0.20" arrival="171.00" arrivalLane="-48778503#0_1" arrivalPos="42.51" arrivalSpeed="13.36" duration="84.00" routeLength="786.57" waitingTime="0.00" waitingCount="0" stopTime="0.00" timeLoss="19.86" rerouteNo="0" devices="tripinfo_veh155" vType="delivery" speedFactor="0.99" vaporized=""/>
    <tripinfo id="veh3" depart="2.00" departLane="1136017144_0" departPos="0.59" departSpeed="0.00" departDelay="0.32" arrival="172.00" arrivalLane="-48736638#2_1" arrivalPos="32.61" arrivalSpeed="12.43" duration="170.00" routeLength="1080.99" waitingTime="29.00" waitingCount="1" stopTime="0.00" timeLoss="54.67" rerouteNo="0" devices="tripinfo_veh3" vType="passenger" speedFactor="0.94" vaporized=""/>
    <tripinfo id="veh87" depart="49.00" departLane="-578560104#5_1" departPos="8.67" departSpeed="0.00" departDelay="0.28" arrival="178.00" arrivalLane="48778454#0_1" arrivalPos="9.58" arrivalSpeed="9.92" duration="129.00" routeLength="1001.11" waitingTime="45.00" waitingCount="1" stopTime="0.00" timeLoss="68.47" rerouteNo="0" devices="tripinfo_veh87" vType="passenger" speedFactor="1.25" vaporized=""/>
    <tripinfo id="veh99" depart="56.00" departLane="48736644_1" departPos="148.89" departSpeed="0.00" departDelay="0.56" arrival="178.00" arrivalLane="-994066252#1_0" arrivalPos="52.62" arrivalSpeed="4.14" duration="122.00" routeLength="1228.94" waitingTime="0.00" waitingCount="0" stopTime="0.00" timeLoss="11.23" rerouteNo="0" devices="tripinfo_veh99" vType="passenger" speedFactor="0.89" vaporized=""/>
    <tripinfo id="veh110" depart="66.00" departLane="1250915720#5_1" departPos="0.70" departSpeed="0.00" departDelay="4.40" arrival="178.00" arrivalLane="-222609002#0_1" arrivalPos="115.34" arrivalSpeed="12.97" duration="112.00" routeLength="948.32" waitingTime="5.00" waitingCount="1" stopTime="0.00" timeLoss="30.30" rerouteNo="0" devices="tripinfo_veh110" vType="emergency" speedFactor="1.00" vaporized=""/>
    <tripinfo id="veh51" depart="29.00" departLane="43573547#7_1" departPos="40.52" departSpeed="0.00" departDelay="0.44" arrival="187.00" arrivalLane="-492965073#5_1" arrivalPos="154.22" arrivalSpeed="12.93" duration="158.00" routeLength="1637.44" waitingTime="19.00" waitingCount="1" stopTime="0.00" timeLoss="38.09" rerouteNo="0" devices="tripinfo_veh51" vType="delivery" speedFactor="0.99" vaporized=""/>
    <tripinfo id="veh123" depart="69.00" departLane="-250295381_1" departPos="30.63" departSpeed="0.00" departDelay="0.12" arrival="189.00" arrivalLane="43544179#11_1" arrivalPos="85.20" arrivalSpeed="11.59" duration="120.00" routeLength="1259.23" waitingTime="0.00" waitingCount="0" stopTime="0.00" timeLoss="18.10" rerouteNo="0" devices="tripinfo_veh123" vType="passenger" speedFactor="0.92" vaporized=""/>
    <tripinfo id="veh13" depart="8.00" departLane="-945793490#5_1" departPos="70.11" departSpeed="0.00" departDelay="0.72" arrival="190.00" arrivalLane="92198452#2_1" arrivalPos="54.26" arrivalSpeed="13.80" duration="182.00" routeLength="1375.78" waitingTime="0.00" waitingCount="0" stopTime="0.00" timeLoss="22.82" rerouteNo="0" devices="tripinfo_veh13" vType="emergency" speedFactor="1.00" vaporized=""/>
    <tripinfo id="veh265" depart="150.00" departLane="945793490#1_1" departPos="3.80" departSpeed="0.00" departDelay="1.60" arrival="192.00" arrivalLane="-1250915720#2_1" arrivalPos="2.90" arrivalSpeed="5.03" duration="42.00" routeLength="176.40" waitingTime="2.00" waitingCount="1" stopTime="0.00" timeLoss="12.04" rerouteNo="0" devices="tripinfo_veh265" vType="passenger" speedFactor="1.09" vaporized=""/>
    <tripinfo id="veh193" depart="109.00" departLane="-222609002#2_1" departPos="0.83" departSpeed="0.00" departDelay="0.92" arrival="193.00" arrivalLane="-48778517#0_1" arrivalPos="43.62" arrivalSpeed="7.32" duration="84.00" routeLength="967.13" waitingTime="0.00" waitingCount="0" stopTime="0.00" timeLoss="16.08" rerouteNo="0" devices="tripinfo_veh193" vType="motorcycle" speedFactor="1.14" vaporized=""/>
    <tripinfo id="veh23" depart="13.00" departLane="-273835688_1" departPos="29.81" departSpeed="0.00" departDelay="0.12" arrival="194.00" arrivalLane="-223942064#1_0" arrivalPos="1.05" arrivalSpeed="12.38" duration="181.00" routeLength="1927.65" waitingTime="0.00" waitingCount="0" stopTime="0.00" timeLoss="22.99" rerouteNo="0" devices="tripinfo_veh23" vType="passenger" speedFactor="0.89" vaporized=""/>
    <tripinfo id="veh35" depart="20.00" departLane="43547296#0_1" departPos="107.85" departSpeed="0.00" departDelay="0.40" arrival="194.00" arrivalLane="-43573573#4_1" arrivalPos="73.63" arrivalSpeed="12.93" duration="174.00" routeLength="2027.96" waitingTime="0.00" waitingCount="0" stopTime="0.00" timeLoss="24.16" rerouteNo="0" devices="tripinfo_veh35" vType="emergency" speedFactor="1.00" vaporized=""/>
    <tripinfo id="veh122" depart="69.00" departLane="383582496_0" departPos="158.64" departSpeed="0.00" departDelay="0.68" arrival="194.00" arrivalLane="48797765#1_1" arrivalPos="28.98" arrivalSpeed="11.04" duration="125.00" routeLength="1452.55" waitingTime="0.00" waitingCount="0" stopTime="0.00" timeLoss="22.92" rerouteNo="0" devices="tripinfo_veh122" vType="passenger" speedFactor="1.07" vaporized=""/>
    <personinfo id="ped11" depart="55.00" type="DEFAULT_PEDTYPE" speedFactor="1.03" duration="141.00" waitingTime="0.00" timeLoss="18.88" traveltime="141.00">
        <walk depart="55.00" departPos="0.00" arrival="196.00" arrivalPos="34.97" duration="141.00" routeLength="174.24" timeLoss="18.88" maxSpeed="1.43"/>
    </personinfo>
    <tripinfo id="veh85" depart="48.00" departLane="-48778449#0_1" departPos="16.66" departSpeed="0.00" departDelay="0.40" arrival="196.00" arrivalLane="-43546449#2_1" arrivalPos="49.54" arrivalSpeed="12.74" duration="148.00" routeLength="1039.58" waitingTime="41.00" waitingCount="2" stopTime="0.00" timeLoss="67.03" rerouteNo="0" devices="tripinfo_veh85" vType="passenger" speedFactor="0.98" vaporized=""/>
    <tripinfo id="veh150" depart="84.00" departLane="1135856746#1_1" departPos="40.19" departSpeed="0.00" departDelay="0.00" arrival="196.00" arrivalLane="48736639#1_1" arrivalPos="23.89" arrivalSpeed="11.93" duration="112.00" routeLength="1227.81" waitingTime="0.00" waitingCount="0" stopTime="0.00" timeLoss="13.60" rerouteNo="0" devices="tripinfo_veh150" vType="passenger" speedFactor="0.93" vaporized=""/>
    <tripinfo id="veh95" depart="54.00" departLane="383582499#2_1" departPos="14.32" departSpeed="0.00" departDelay="0.80" arrival="197.00" arrivalLane="43544179#4_1" arrivalPos="42.09" arrivalSpeed="13.21" duration="143.00" routeLength="1632.41" waitingTime="0.00" waitingCount="0" stopTime="0.00" timeLoss="19.95" rerouteNo="0" devices="tripinfo_veh95" vType="motorcycle" speedFactor="0.98" vaporized=""/>
    <tripinfo id="veh86" depart="49.00" departLane="-48736638#0_1" departPos="34.68" departSpeed="0.00" departDelay="0.84" arrival="199.00" arrivalLane="1136283361_0" arrivalPos="47.88" arrivalSpeed="5.38" duration="150.00" routeLength="1553.09" waitingTime="2.00" waitingCount="1" stopTime="0.00" timeLoss="28.59" rerouteNo="0" devices="tripinfo_veh86" vType="delivery" speedFactor="1.03" vaporized=""/>
    <tripinfo id="veh89" depart="50.00" departLane="945794111_1" departPos="52.55" departSpeed="0.00" departDelay="0.16" arrival="200.00" arrivalLane="945793491#0_1" arrivalPos="34.62" arrivalSpeed="4.37" duration="150.00" routeLength="1037.41" waitingTime="28.00" waitingCount="1" stopTime="0.00" timeLoss="53.47" rerouteNo="0" devices="tripinfo_veh89" vType="delivery" speedFactor="1.01" vaporized=""/>
    <tripinfo id="veh118" depart="67.00" departLane="33913538#5_2" departPos="0.71" departSpeed="0.00" departDelay="0.92" arrival="200.00" arrivalLane="48736624#2_1" arrivalPos="0.20" arrivalSpeed="6.05" duration="133.00" routeLength="1144.09" waitingTime="11.00" waitingCount="1" stopTime="0.00" timeLoss="31.94" rerouteNo="0" devices="tripinfo_veh118" vType="passenger" speedFactor="0.89" vaporized=""/>
    <tripinfo id="veh171" depart="96.00" departLane="-48736621#2_1" departPos="8.41" departSpeed="0.00" departDelay="0.24" arrival="200.00" arrivalLane="-40314853#3_1" arrivalPos="25.30" arrivalSpeed="10.11" duration="104.00" routeLength="802.08" waitingTime="3.00" waitingCount="1" stopTime="0.00" timeLoss="29.20" rerouteNo="0" devices="tripinfo_veh171" vType="passenger" speedFactor="0.80" vaporized=""/>
    <tripinfo id="veh120" depart="68.00" departLane="-671642324_1" departPos="45.94" departSpeed="0.00" departDelay="0.80" arrival="202.00" arrivalLane="1136289992_1" arrivalPos="17.60" arrivalSpeed="6.24" duration="134.00" routeLength="1457.46" waitingTime="0.00" waitingCount="0" stopTime="0.00" timeLoss="26.01" rerouteNo="0" devices="tripinfo_veh120" vType="motorcycle" speedFactor="1.04" vaporized=""/>
    <tripinfo id="veh264" depart="148.00" departLane="-48736666#1_1" departPos="0.92" departSpeed="0.00" departDelay="0.16" arrival="204.00" arrivalLane="48736612#1_1" arrivalPos="56.12" arrivalSpeed="15.59" duration="56.00" routeLength="685.62" waitingTime="0.00" waitingCount="0" stopTime="0.00" timeLoss="10.92" rerouteNo="0" devices="tripinfo_veh264" vType="passenger" speedFactor="1.13" vaporized=""/>
    <tripinfo id="veh96" depart="54.00" departLane="48778461#1_1" departPos="20.09" departSpeed="0.00" departDelay="0.24" arrival="206.00" arrivalLane="-859732803#0_0" arrivalPos="20.07" arrivalSpeed="4.63" duration="152.00" routeLength="1184.04" waitingTime="17.00" waitingCount="1" stopTime="0.00" timeLoss="48.59" rerouteNo="0" devices="tripinfo_veh96" vType="motorcycle" speedFactor="0.94" vaporized=""/>
    <tripinfo id="veh261" depart="147.00" departLane="48797770_1" departPos="3.14" departSpeed="0.00" departDelay="0.84" arrival="206.00" arrivalLane="647741479_1" arrivalPos="102.89" arrivalSpeed="13.70" duration="59.00" routeLength="389.09" waitingTime="16.00" waitingCount="1" stopTime="0.00" timeLoss="27.65" rerouteNo="0" devices="tripinfo_veh261" vType="motorcycle" speedFactor="0.99" vaporized=""/>
    <tripinfo id="veh158" depart="89.00" departLane="-222609002#0_1" departPos="78.95" departSpeed="0.00" departDelay="0.52" arrival="208.00" arrivalLane="945793490#3_1" arrivalPos="33.80" arrivalSpeed="3.88" duration="119.00" routeLength="837.78" waitingTime="6.00" waitingCount="1" stopTime="0.00" timeLoss="27.71" rerouteNo="0" devices="tripinfo_veh158" vType="passenger" speedFactor="0.90" vaporized=""/>
    <tripinfo id="veh257" depart="144.00" departLane="-354252035_1" departPos="44.59" departSpeed="0.00" departDelay="0.08" arrival="209.00" arrivalLane="-43546105#3_1" arrivalPos="36.33" arrivalSpeed="13.53" duration="65.00" routeLength="721.71" waitingTime="0.00" waitingCount="0" stopTime="0.00" timeLoss="12.11" rerouteNo="0" devices="tripinfo_veh257" vType="passenger" speedFactor="1.05" vaporized=""/>
    <tripinfo id="veh17" depart="10.00" departLane="43546039#3_1" departPos="11.33" departSpeed="0.00" departDelay="0.48" arrival="210.00" arrivalLane="43546115_1" arrivalPos="162.45" arrivalSpeed="3.99" duration="200.00" routeLength="826.48" waitingTime="0.00" waitingCount="0" stopTime="0.00" timeLoss="14.33" rerouteNo="0" devices="tripinfo_veh17" vType="bicycle" speedFactor="0.80" vaporized=""/>
    <tripinfo id="veh125" depart="70.00" departLane="-578560104#6_1" departPos="22.04" departSpeed="0.00" departDelay="0.00" arrival="217.00" arrivalLane="40265780#0_1" arrivalPos="187.83" arrivalSpeed="9.77" duration="147.00" routeLength="1338.81" waitingTime="0.00" waitingCount="0" stopTime="0.00" timeLoss="34.01" rerouteNo="0" devices="tripinfo_veh125" vType="motorcycle" speedFactor="1.01" vaporized=""/>
    <tripinfo id="veh298" depart="171.00" departLane="43547017#2_1" departPos="16.25" departSpeed="0.00" departDelay="4.12" arrival="217.00" arrivalLane="-43544046_1" arrivalPos="104.31" arrivalSpeed="13.35" duration="46.00" routeLength="462.55" waitingTime="0.00" waitingCount="0" stopTime="0.00" timeLoss="11.03" rerouteNo="0" devices="tripinfo_veh298" vType="motorcycle" speedFactor="1.03" vaporized=""/>
    <tripinfo id="veh227" depart="128.00" departLane="40266907#0_1" departPos="26.63" departSpeed="0.00" departDelay="0.88" arrival="219.00" arrivalLane="-1136301819_1" arrivalPos="13.82" arrivalSpeed="7.73" duration="91.00" routeLength="775.03" waitingTime="0.00" waitingCount="0" stopTime="0.00" timeLoss="18.89" rerouteNo="0" devices="tripinfo_veh227" vType="passenger" speedFactor="0.85" vaporized=""/>
    <tripinfo id="veh6" depart="4.00" departLane="-945793491#1_1" departPos="0.37" departSpeed="0.00" departDelay="0.64" arrival="220.00" arrivalLane="-48736624#1_1" arrivalPos="55.65" arrivalSpeed="12.50" duration="216.00" routeLength="1850.66" waitingTime="12.00" waitingCount="1" stopTime="0.00" timeLoss="38.28" rerouteNo="0" devices="tripinfo_veh6" vType="passenger" speedFactor="0.92" vaporized=""/>
    <tripinfo id="veh176" depart="99.00" departLane="92198453#0_1" departPos="63.84" departSpeed="0.00" departDelay="0.44" arrival="220.00" arrivalLane="40236153#1_1" arrivalPos="105.33" arrivalSpeed="15.31" duration="121.00" routeLength="1560.23" waitingTime="0.00" waitingCount="0" stopTime="0.00" timeLoss="21.83" rerouteNo="0" devices="tripinfo_veh176" vType="passenger" speedFactor="1.17" vaporized=""/>
    <tripinfo id="veh186" depart="105.00" departLane="43544197#8_1" departPos="113.86" departSpeed="0.00" departDelay="0.84" arrival="222.00" arrivalLane="-33909936#2_1" arrivalPos="60.97" arrivalSpeed="14.67" duration="117.00" routeLength="1359.92" waitingTime="7.00" waitingCount="1" stopTime="0.00" timeLoss="23.27" rerouteNo="0" devices="tripinfo_veh186" vType="passenger" speedFactor="1.06" vaporized=""/>
    <tripinfo id="veh154" depart="87.00" departLane="-43547017#2_1" departPos="20.19" departSpeed="0.00" departDelay="0.76" arrival="225.00" arrivalLane="43544001#0_1" arrivalPos="29.53" arrivalSpeed="11.57" duration="138.00" routeLength="1964.56" waitingTime="0.00" waitingCount="0" stopTime="0.00" timeLoss="16.57" rerouteNo="0" devices="tripinfo_veh154" vType="passenger" speedFactor="1.18" vaporized=""/>
    <tripinfo id="veh12" depart="7.00" departLane="E13_1" departPos="1.65" departSpeed="0.00" departDelay="0.28" arrival="226.00" arrivalLane="222609002#4_1" arrivalPos="52.31" arrivalSpeed="4.75" duration="219.00" routeLength="2192.33" waitingTime="4.00" waitingCount="2" stopTime="0.00" timeLoss="53.28" rerouteNo="0" devices="tripinfo_veh12" vType="delivery" speedFactor="0.97" vaporized=""/>
    <tripinfo id="veh92" depart="52.00" departLane="-48778525#1_1" departPos="11.25" departSpeed="0.00" departDelay="0.48" arrival="227.00" arrivalLane="-43573573#4_1" arrivalPos="73.63" arrivalSpeed="6.45" duration="175.00" routeLength="1012.20" waitingTime="0.00" waitingCount="0" stopTime="0.00" timeLoss="19.51" rerouteNo="0" devices="tripinfo_veh92" vType="bicycle" speedFactor="1.18" vaporized=""/>
    <tripinfo id="veh67" depart="38.00" departLane="-43544197#2_1" departPos="39.93" departSpeed="0.00" departDelay="0.48" arrival="228.00" arrivalLane="-996984134_0" arrivalPos="80.94" arrivalSpeed="4.77" duration="190.00" routeLength="1957.81" waitingTime="0.00" waitingCount="0" stopTime="0.00" timeLoss="30.57" rerouteNo="0" devices="tripinfo_veh67" vType="passenger" speedFactor="0.98" vaporized=""/>
    <tripinfo id="veh343" depart="193.00" departLane="1251292611_1" departPos="1.47" departSpeed="0.00" departDelay="0.92" arrival="230.00" arrivalLane="-1250915721#0_1" arrivalPos="14.93" arrivalSpeed="4.39" duration="37.00" routeLength="160.37" waitingTime="0.00" waitingCount="0" stopTime="0.00" timeLoss="5.86" rerouteNo="0" devices="tripinfo_veh343" vType="passenger" speedFactor="0.93" vaporized=""/>
    <tripinfo id="veh32" depart="18.00" departLane="-40265774#0_1" departPos="38.35" departSpeed="0.00" departDelay="0.08" arrival="231.00" arrivalLane="43546460#8_1" arrivalPos="94.89" arrivalSpeed="13.04" duration="213.00" routeLength="2538.81" waitingTime="0.00" waitingCount="0" stopTime="0.00" timeLoss="29.52" rerouteNo="0" devices="tripinfo_veh32" vType="passenger" speedFactor="1.03" vaporized=""/>
    <personinfo id="ped5" depart="25.00" type="DEFAULT_PEDTYPE" speedFactor="0.82" duration="208.00" waitingTime="0.00" timeLoss="21.59" traveltime="208.00">
        <walk depart="25.00" departPos="0.00" arrival="233.00" arrivalPos="47.62" duration="208.00" routeLength="212.95" timeLoss="21.59" maxSpeed="1.14"/>
    </personinfo>
    <tripinfo id="veh5" depart="3.00" departLane="-143207982#3_1" departPos="13.76" departSpeed="0.00" departDelay="0.20" arrival="234.00" arrivalLane="-1250915723#0_1" arrivalPos="19.10" arrivalSpeed="4.96" duration="231.00" routeLength="1948.58" waitingTime="47.00" waitingCount="2" stopTime="0.00" timeLoss="75.33" rerouteNo="0" devices="tripinfo_veh5" vType="delivery" speedFactor="1.05" vaporized=""/>
    <tripinfo id="veh49" depart="28.00" departLane="40330575#2_1" departPos="52.62" departSpeed="0.00" departDelay="0.56" arrival="236.00" arrivalLane="-43546785_1" arrivalPos="161.51" arrivalSpeed="14.77" duration="208.00" routeLength="1993.91" waitingTime="24.00" waitingCount="2" stopTime="0.00" timeLoss="73.25" rerouteNo="0" devices="tripinfo_veh49" vType="passenger" speedFactor="1.12" vaporized=""/>