<?xml version="1.0" encoding="UTF-8"?>

<!-- generated on 2025-06-15 22:08:22 by Eclipse SUMO sumo Version 1.22.0
<sumoConfiguration xmlns:xsi="http://www.w3.org/2001/XMLSchema-instance" xsi:noNamespaceSchemaLocation="http://sumo.dlr.de/xsd/sumoConfiguration.xsd">

    <input>
        <net-file value="E:/licenta/oras-mediu/2025-06-05-11-45-23\osm.net.xml"/>
        <route-files value="E:/licenta/oras-mediu/2025-06-05-11-45-23\full.rou.xml,E:/licenta/oras-mediu/2025-06-05-11-45-23\ ped.rou.xml,E:/licenta/oras-mediu/2025-06-05-11-45-23\ truck.rou.xml"/>
        <additional-files value="E:/licenta/oras-mediu/2025-06-05-11-45-23\osm.poly.xml,E:/licenta/oras-mediu/2025-06-05-11-45-23\ vtypes.xml"/>
    </input>

    <output>
        <summary-output value="E:/licenta/oras-mediu/2025-06-05-11-45-23\summary.xml"/>
        <tripinfo-output value="evaluation_run_outputs\baseline_outputs\tripinfo_baseline_ep12.xml"/>
    </output>

    <processing>
        <ignore-route-errors value="true"/>
        <tls.actuated.jam-threshold value="30"/>
    </processing>

    <routing>
        <device.rerouting.adaptation-steps value="18"/>
        <device.rerouting.adaptation-interval value="10"/>
    </routing>

    <report>
        <verbose value="true"/>
        <duration-log.statistics value="true"/>
        <no-step-log value="true"/>
    </report>

    <gui_only>
        <gui-settings-file value="E:/licenta/oras-mediu/2025-06-05-11-45-23\osm.view.xml"/>
    </gui_only>

</sumoConfiguration>
-->

<tripinfos xmlns:xsi="http://www.w3.org/2001/XMLSchema-instance" xsi:noNamespaceSchemaLocation="http://sumo.dlr.de/xsd/tripinfo_file.xsd">
    <tripinfo id="veh4" depart="3.00" departLane="-984513295_0" departPos="11.65" departSpeed="0.00" departDelay="0.96" arrival="31.00" arrivalLane="-1054663953_0" arrivalPos="46.63" arrivalSpeed="5.04" duration="28.00" routeLength="169.51" waitingTime="0.00" waitingCount="0" stopTime="0.00" timeLoss="5.79" rerouteNo="0" devices="tripinfo_veh4" vType="passenger" speedFactor="1.02" vaporized=""/>
    <tripinfo id="veh9" depart="5.00" departLane="48736618_1" departPos="21.26" departSpeed="0.00" departDelay="0.41" arrival="38.00" arrivalLane="-1054663953_0" arrivalPos="46.63" arrivalSpeed="5.43" duration="33.00" routeLength="262.73" waitingTime="0.00" waitingCount="0" stopTime="0.00" timeLoss="9.15" rerouteNo="0" devices="tripinfo_veh9" vType="passenger" speedFactor="1.12" vaporized=""/>
    <tripinfo id="veh39" depart="20.00" departLane="43546789#2_1" departPos="59.08" departSpeed="0.00" departDelay="0.11" arrival="44.00" arrivalLane="40304754#4_1" arrivalPos="101.37" arrivalSpeed="11.35" duration="24.00" routeLength="218.67" waitingTime="0.00" waitingCount="0" stopTime="0.00" timeLoss="5.09" rerouteNo="0" devices="tripinfo_veh39" vType="passenger" speedFactor="0.88" vaporized=""/>
    <tripinfo id="veh78" depart="40.00" departLane="43546460#0_1" departPos="291.91" departSpeed="0.00" departDelay="0.22" arrival="88.00" arrivalLane="671642318#2_1" arrivalPos="31.59" arrivalSpeed="11.51" duration="48.00" routeLength="473.56" waitingTime="0.00" waitingCount="0" stopTime="0.00" timeLoss="8.71" rerouteNo="0" devices="tripinfo_veh78" vType="passenger" speedFactor="0.91" vaporized=""/>
    <tripinfo id="veh95" depart="49.00" departLane="-1107366376_0" departPos="139.68" departSpeed="0.00" departDelay="0.55" arrival="88.00" arrivalLane="48778429#1_1" arrivalPos="67.29" arrivalSpeed="14.51" duration="39.00" routeLength="475.09" waitingTime="0.00" waitingCount="0" stopTime="0.00" timeLoss="6.62" rerouteNo="0" devices="tripinfo_veh95" vType="passenger" speedFactor="1.13" vaporized=""/>
    <tripinfo id="veh82" depart="42.00" departLane="43544197#5_1" departPos="0.45" departSpeed="0.00" departDelay="0.18" arrival="89.00" arrivalLane="-43546105#3_1" arrivalPos="36.33" arrivalSpeed="13.47" duration="47.00" routeLength="478.91" waitingTime="0.00" waitingCount="0" stopTime="0.00" timeLoss="10.47" rerouteNo="0" devices="tripinfo_veh82" vType="delivery" speedFactor="0.98" vaporized=""/>
    <tripinfo id="veh23" depart="12.00" departLane="40345956#3_1" departPos="2.05" departSpeed="0.00" departDelay="0.27" arrival="91.00" arrivalLane="-223883703_0" arrivalPos="83.93" arrivalSpeed="5.71" duration="79.00" routeLength="935.91" waitingTime="0.00" waitingCount="0" stopTime="0.00" timeLoss="9.12" rerouteNo="0" devices="tripinfo_veh23" vType="passenger" speedFactor="1.13" vaporized=""/>
    <tripinfo id="veh83" depart="43.00" departLane="48736611#0_1" departPos="17.41" departSpeed="0.00" departDelay="0.67" arrival="94.00" arrivalLane="48736602_1" arrivalPos="229.50" arrivalSpeed="13.76" duration="51.00" routeLength="490.93" waitingTime="0.00" waitingCount="0" stopTime="0.00" timeLoss="10.83" rerouteNo="0" devices="tripinfo_veh83" vType="passenger" speedFactor="1.06" vaporized=""/>
    <tripinfo id="veh61" depart="32.00" departLane="-40330592_1" departPos="51.50" departSpeed="0.00" departDelay="0.89" arrival="95.00" arrivalLane="354259933#1_1" arrivalPos="32.06" arrivalSpeed="13.10" duration="63.00" routeLength="688.10" waitingTime="0.00" waitingCount="0" stopTime="0.00" timeLoss="16.04" rerouteNo="0" devices="tripinfo_veh61" vType="passenger" speedFactor="1.12" vaporized=""/>
    <tripinfo id="veh81" depart="42.00" departLane="-43544184#1_1" departPos="0.16" departSpeed="0.00" departDelay="0.69" arrival="96.00" arrivalLane="43547017#3_1" arrivalPos="48.19" arrivalSpeed="13.86" duration="54.00" routeLength="441.37" waitingTime="3.00" waitingCount="1" stopTime="0.00" timeLoss="18.17" rerouteNo="0" devices="tripinfo_veh81" vType="emergency" speedFactor="1.00" vaporized=""/>
    <tripinfo id="veh87" depart="45.00" departLane="43573547#1_1" departPos="22.60" departSpeed="0.00" departDelay="0.63" arrival="101.00" arrivalLane="48778493#2_1" arrivalPos="44.65" arrivalSpeed="13.38" duration="56.00" routeLength="627.60" waitingTime="0.00" waitingCount="0" stopTime="0.00" timeLoss="8.42" rerouteNo="0" devices="tripinfo_veh87" vType="passenger" speedFactor="0.98" vaporized=""/>
    <tripinfo id="veh54" depart="28.00" departLane="143207979#0_1" departPos="24.33" departSpeed="0.00" departDelay="0.46" arrival="113.00" arrivalLane="-222608881#0_1" arrivalPos="169.24" arrivalSpeed="12.29" duration="85.00" routeLength="924.36" waitingTime="0.00" waitingCount="0" stopTime="0.00" timeLoss="14.11" rerouteNo="0" devices="tripinfo_veh54" vType="passenger" speedFactor="0.96" vaporized=""/>
    <tripinfo id="truck25" depart="26.00" departLane="48788485#0_1" departPos="12.10" departSpeed="0.00" departDelay="0.00" arrival="114.00" arrivalLane="48788485#5_1" arrivalPos="101.99" arrivalSpeed="13.81" duration="88.00" routeLength="805.24" waitingTime="9.00" waitingCount="1" stopTime="0.00" timeLoss="29.36" rerouteNo="0" devices="tripinfo_truck25" vType="truck" speedFactor="1.02" vaporized=""/>
    <tripinfo id="veh108" depart="56.00" departLane="250295379_1" departPos="42.37" departSpeed="0.00" departDelay="0.92" arrival="117.00" arrivalLane="-984521612#0_0" arrivalPos="12.48" arrivalSpeed="5.15" duration="61.00" routeLength="400.10" waitingTime="1.00" waitingCount="1" stopTime="0.00" timeLoss="16.84" rerouteNo="0" devices="tripinfo_veh108" vType="passenger" speedFactor="1.03" vaporized=""/>
    <tripinfo id="veh80" depart="41.00" departLane="-222605087#1_1" departPos="3.69" departSpeed="0.00" departDelay="0.20" arrival="122.00" arrivalLane="353939570#7_2" arrivalPos="11.98" arrivalSpeed="10.42" duration="81.00" routeLength="712.62" waitingTime="7.00" waitingCount="1" stopTime="0.00" timeLoss="24.75" rerouteNo="0" devices="tripinfo_veh80" vType="passenger" speedFactor="1.10" vaporized=""/>
    <tripinfo id="veh26" depart="14.00" departLane="-647621857_0" departPos="27.77" departSpeed="0.00" departDelay="0.74" arrival="124.00" arrivalLane="-492965073#8_1" arrivalPos="91.38" arrivalSpeed="14.76" duration="110.00" routeLength="1136.84" waitingTime="0.00" waitingCount="0" stopTime="0.00" timeLoss="31.17" rerouteNo="0" devices="tripinfo_veh26" vType="passenger" speedFactor="1.12" vaporized=""/>
    <tripinfo id="veh101" depart="52.00" departLane="40345956#0_1" departPos="39.48" departSpeed="0.00" departDelay="0.49" arrival="129.00" arrivalLane="-222605087#2_1" arrivalPos="14.86" arrivalSpeed="4.43" duration="77.00" routeLength="530.47" waitingTime="0.00" waitingCount="0" stopTime="0.00" timeLoss="13.64" rerouteNo="0" devices="tripinfo_veh101" vType="passenger" speedFactor="1.02" vaporized=""/>
    <tripinfo id="veh140" depart="72.00" departLane="898519021_1" departPos="7.55" departSpeed="0.00" departDelay="0.60" arrival="131.00" arrivalLane="48778480#5_1" arrivalPos="195.85" arrivalSpeed="11.80" duration="59.00" routeLength="534.39" waitingTime="0.00" waitingCount="0" stopTime="0.00" timeLoss="11.78" rerouteNo="0" devices="tripinfo_veh140" vType="passenger" speedFactor="0.87" vaporized=""/>
    <tripinfo id="veh73" depart="38.00" departLane="-48778527_1" departPos="17.30" departSpeed="0.00" departDelay="0.77" arrival="139.00" arrivalLane="-43546053#0_1" arrivalPos="315.83" arrivalSpeed="11.19" duration="101.00" routeLength="991.94" waitingTime="0.00" waitingCount="0" stopTime="0.00" timeLoss="12.57" rerouteNo="0" devices="tripinfo_veh73" vType="passenger" speedFactor="0.83" vaporized=""/>
    <tripinfo id="veh32" depart="17.00" departLane="48778475#2_1" departPos="10.87" departSpeed="0.00" departDelay="0.68" arrival="145.00" arrivalLane="-250295380#0_1" arrivalPos="168.50" arrivalSpeed="4.14" duration="128.00" routeLength="543.01" waitingTime="0.00" waitingCount="0" stopTime="0.00" timeLoss="10.61" rerouteNo="0" devices="tripinfo_veh32" vType="bicycle" speedFactor="0.83" vaporized=""/>
    <tripinfo id="veh109" depart="56.00" departLane="48736641_1" departPos="12.38" departSpeed="0.00" departDelay="0.41" arrival="146.00" arrivalLane="-1136301812#0_1" arrivalPos="36.85" arrivalSpeed="9.64" duration="90.00" routeLength="634.50" waitingTime="3.00" waitingCount="1" stopTime="0.00" timeLoss="27.48" rerouteNo="0" devices="tripinfo_veh109" vType="motorcycle" speedFactor="0.84" vaporized=""/>
    <tripinfo id="veh177" depart="91.00" departLane="143207979#7_1" departPos="37.86" departSpeed="0.00" departDelay="0.73" arrival="152.00" arrivalLane="48778431#4_2" arrivalPos="151.14" arrivalSpeed="13.17" duration="61.00" routeLength="706.94" waitingTime="0.00" waitingCount="0" stopTime="0.00" timeLoss="12.79" rerouteNo="0" devices="tripinfo_veh177" vType="motorcycle" speedFactor="1.10" vaporized=""/>
    <personinfo id="ped17" depart="85.00" type="DEFAULT_PEDTYPE" speedFactor="1.24" duration="69.00" waitingTime="0.00" timeLoss="7.57" traveltime="69.00">
        <walk depart="85.00" departPos="0.00" arrival="154.00" arrivalPos="12.69" duration="69.00" routeLength="105.48" timeLoss="7.57" maxSpeed="1.72"/>
    </personinfo>
    <tripinfo id="veh47" depart="24.00" departLane="-176279225#0_2" departPos="8.81" departSpeed="0.00" departDelay="0.03" arrival="156.00" arrivalLane="40345956#2_1" arrivalPos="20.97" arrivalSpeed="14.01" duration="132.00" routeLength="1572.59" waitingTime="1.00" waitingCount="1" stopTime="0.00" timeLoss="18.57" rerouteNo="0" devices="tripinfo_veh47" vType="passenger" speedFactor="1.02" vaporized=""/>
    <tripinfo id="veh212" depart="109.00" departLane="48788485#0_1" departPos="250.10" departSpeed="0.00" departDelay="0.88" arrival="157.00" arrivalLane="43544046_1" arrivalPos="104.15" arrivalSpeed="14.29" duration="48.00" routeLength="556.97" waitingTime="0.00" waitingCount="0" stopTime="0.00" timeLoss="10.41" rerouteNo="0" devices="tripinfo_veh212" vType="passenger" speedFactor="1.12" vaporized=""/>
    <tripinfo id="veh86" depart="44.00" departLane="-859732801#1_1" departPos="17.37" departSpeed="0.00" departDelay="0.14" arrival="160.00" arrivalLane="-48778495#0_1" arrivalPos="107.63" arrivalSpeed="8.49" duration="116.00" routeLength="759.05" waitingTime="29.00" waitingCount="1" stopTime="0.00" timeLoss="52.89" rerouteNo="0" devices="tripinfo_veh86" vType="passenger" speedFactor="1.03" vaporized=""/>
    <tripinfo id="veh107" depart="55.00" departLane="-647998060#1_1" departPos="13.33" departSpeed="0.00" departDelay="0.43" arrival="160.00" arrivalLane="-43544179#6_1" arrivalPos="35.50" arrivalSpeed="12.59" duration="105.00" routeLength="1265.77" waitingTime="0.00" waitingCount="0" stopTime="0.00" timeLoss="18.35" rerouteNo="0" devices="tripinfo_veh107" vType="motorcycle" speedFactor="1.10" vaporized=""/>
    <personinfo id="ped24" depart="120.00" type="DEFAULT_PEDTYPE" speedFactor="1.01" duration="43.00" waitingTime="0.00" timeLoss="5.26" traveltime="43.00">
        <walk depart="120.00" departPos="0.00" arrival="163.00" arrivalPos="16.25" duration="43.00" routeLength="52.98" timeLoss="5.26" maxSpeed="1.40"/>
    </personinfo>
    <personinfo id="ped30" depart="150.00" type="DEFAULT_PEDTYPE" speedFactor="1.09" duration="21.00" waitingTime="0.00" timeLoss="2.69" traveltime="21.00">
        <walk depart="150.00" departPos="0.00" arrival="171.00" arrivalPos="23.00" duration="21.00" routeLength="27.81" timeLoss="2.69" maxSpeed="1.52"/>
    </personinfo>
    <tripinfo id="veh160" depart="82.00" departLane="48778485#0_1" departPos="18.27" departSpeed="0.00" departDelay="0.40" arrival="171.00" arrivalLane="-354259927_1" arrivalPos="310.58" arrivalSpeed="14.70" duration="89.00" routeLength="1176.23" waitingTime="0.00" waitingCount="0" stopTime="0.00" timeLoss="18.57" rerouteNo="0" devices="tripinfo_veh160" vType="passenger" speedFactor="1.15" vaporized=""/>
    <tripinfo id="veh224" depart="115.00" departLane="-48736607#0_1" departPos="7.85" departSpeed="0.00" departDelay="0.76" arrival="173.00" arrivalLane="-E24_1" arrivalPos="106.13" arrivalSpeed="11.42" duration="58.00" routeLength="426.33" waitingTime="10.00" waitingCount="1" stopTime="0.00" timeLoss="20.99" rerouteNo="0" devices="tripinfo_veh224" vType="passenger" speedFactor="0.88" vaporized=""/>
    <tripinfo id="veh191" depart="98.00" departLane="43573769#0_1" departPos="37.84" departSpeed="0.00" departDelay="0.59" arrival="174.00" arrivalLane="43573573#3_1" arrivalPos="71.51" arrivalSpeed="14.27" duration="76.00" routeLength="672.33" waitingTime="6.00" waitingCount="1" stopTime="0.00" timeLoss="27.63" rerouteNo="0" devices="tripinfo_veh191" vType="delivery" speedFactor="1.08" vaporized=""/>
    <tripinfo id="veh16" depart="9.00" departLane="-859729932_0" departPos="68.94" departSpeed="0.00" departDelay="0.84" arrival="175.00" arrivalLane="40299276#1_1" arrivalPos="70.79" arrivalSpeed="13.04" duration="166.00" routeLength="1853.87" waitingTime="2.00" waitingCount="1" stopTime="0.00" timeLoss="25.53" rerouteNo="0" devices="tripinfo_veh16" vType="emergency" speedFactor="1.00" vaporized=""/>
    <tripinfo id="veh124" depart="64.00" departLane="-671606411_1" departPos="146.71" departSpeed="0.00" departDelay="0.76" arrival="176.00" arrivalLane="48778446#2_1" arrivalPos="11.20" arrivalSpeed="10.66" duration="112.00" routeLength="949.54" waitingTime="26.00" waitingCount="1" stopTime="0.00" timeLoss="39.39" rerouteNo="0" devices="tripinfo_veh124" vType="passenger" speedFactor="0.97" vaporized=""/>
    <tripinfo id="veh102" depart="53.00" departLane="222605084#2_1" departPos="0.45" departSpeed="0.00" departDelay="0.98" arrival="182.00" arrivalLane="33909936#2_1" arrivalPos="59.66" arrivalSpeed="11.01" duration="129.00" routeLength="1041.70" waitingTime="0.00" waitingCount="0" stopTime="0.00" timeLoss="16.18" rerouteNo="0" devices="tripinfo_veh102" vType="passenger" speedFactor="0.89" vaporized=""/>
    <tripinfo id="veh19" depart="10.00" departLane="1054663953_0" departPos="1.51" departSpeed="0.00" departDelay="0.31" arrival="183.00" arrivalLane="48736642_1" arrivalPos="97.47" arrivalSpeed="11.69" duration="173.00" routeLength="1468.30" waitingTime="16.00" waitingCount="2" stopTime="0.00" timeLoss="45.35" rerouteNo="0" devices="tripinfo_veh19" vType="passenger" speedFactor="0.89" vaporized=""/>
    <tripinfo id="veh151" depart="78.00" departLane="43544179#9_1" departPos="128.91" departSpeed="0.00" departDelay="0.99" arrival="184.00" arrivalLane="-48778502#0_1" arrivalPos="26.17" arrivalSpeed="11.32" duration="106.00" routeLength="1210.01" waitingTime="0.00" waitingCount="0" stopTime="0.00" timeLoss="13.65" rerouteNo="0" devices="tripinfo_veh151" vType="delivery" speedFactor="0.97" vaporized=""/>
    <tripinfo id="veh31" depart="16.00" departLane="43544184#3_1" departPos="12.61" departSpeed="0.00" departDelay="0.19" arrival="185.00" arrivalLane="-250295384_1" arrivalPos="124.18" arrivalSpeed="15.18" duration="169.00" routeLength="1935.07" waitingTime="0.00" waitingCount="0" stopTime="0.00" timeLoss="39.83" rerouteNo="0" devices="tripinfo_veh31" vType="passenger" speedFactor="1.10" vaporized=""/>
    <tripinfo id="veh79" depart="41.00" departLane="-48736619_1" departPos="19.08" departSpeed="0.00" departDelay="0.71" arrival="185.00" arrivalLane="-898519021_1" arrivalPos="62.05" arrivalSpeed="7.28" duration="144.00" routeLength="1451.52" waitingTime="22.00" waitingCount="1" stopTime="0.00" timeLoss="49.37" rerouteNo="0" devices="tripinfo_veh79" vType="passenger" speedFactor="1.14" vaporized=""/>
    <tripinfo id="veh139" depart="71.00" departLane="48778501_1" departPos="112.83" departSpeed="0.00" departDelay="0.11" arrival="185.00" arrivalLane="1250915723#1_1" arrivalPos="57.17" arrivalSpeed="4.75" duration="114.00" routeLength="858.75" waitingTime="0.00" waitingCount="0" stopTime="0.00" timeLoss="23.87" rerouteNo="0" devices="tripinfo_veh139" vType="passenger" speedFactor="0.98" vaporized=""/>
    <tripinfo id="veh230" depart="118.00" departLane="40299739#0_1" departPos="45.13" departSpeed="0.00" departDelay="0.70" arrival="186.00" arrivalLane="48736641_1" arrivalPos="16.88" arrivalSpeed="9.10" duration="68.00" routeLength="824.24" waitingTime="0.00" waitingCount="0" stopTime="0.00" timeLoss="14.53" rerouteNo="0" devices="tripinfo_veh230" vType="passenger" speedFactor="1.16" vaporized=""/>
    <tripinfo id="veh188" depart="96.00" departLane="48778464#2_1" departPos="6.39" departSpeed="0.00" departDelay="0.12" arrival="190.00" arrivalLane="-40236203#0_1" arrivalPos="83.44" arrivalSpeed="12.84" duration="94.00" routeLength="841.17" waitingTime="0.00" waitingCount="0" stopTime="0.00" timeLoss="22.06" rerouteNo="0" devices="tripinfo_veh188" vType="delivery" speedFactor="0.93" vaporized=""/>
    <tripinfo id="veh29" depart="17.00" departLane="-383582504#0_0" departPos="0.24" departSpeed="0.00" departDelay="2.21" arrival="192.00" arrivalLane="43546039#1_1" arrivalPos="97.78" arrivalSpeed="13.03" duration="175.00" routeLength="1954.37" waitingTime="7.00" waitingCount="1" stopTime="0.00" timeLoss="34.14" rerouteNo="0" devices="tripinfo_veh29" vType="motorcycle" speedFactor="1.02" vaporized=""/>
    <tripinfo id="veh136" depart="70.00" departLane="264868325_1" departPos="58.78" departSpeed="0.00" departDelay="0.64" arrival="192.00" arrivalLane="-143207979#3_1" arrivalPos="38.67" arrivalSpeed="12.20" duration="122.00" routeLength="1293.66" waitingTime="0.00" waitingCount="0" stopTime="0.00" timeLoss="21.09" rerouteNo="0" devices="tripinfo_veh136" vType="passenger" speedFactor="0.97" vaporized=""/>
    <tripinfo id="veh273" depart="140.00" departLane="-48736612#7_1" departPos="15.64" departSpeed="0.00" departDelay="0.77" arrival="193.00" arrivalLane="-859738688_0" arrivalPos="223.29" arrivalSpeed="4.80" duration="53.00" routeLength="305.00" waitingTime="0.00" waitingCount="0" stopTime="0.00" timeLoss="9.37" rerouteNo="0" devices="tripinfo_veh273" vType="delivery" speedFactor="1.08" vaporized=""/>
    <tripinfo id="veh216" depart="111.00" departLane="40265775#0_1" departPos="7.07" departSpeed="0.00" departDelay="0.84" arrival="194.00" arrivalLane="43546105#3_1" arrivalPos="36.33" arrivalSpeed="11.97" duration="83.00" routeLength="937.57" waitingTime="0.00" waitingCount="0" stopTime="0.00" timeLoss="11.17" rerouteNo="0" devices="tripinfo_veh216" vType="passenger" speedFactor="0.95" vaporized=""/>
    <tripinfo id="veh166" depart="85.00" departLane="647347140#1_1" departPos="22.20" departSpeed="0.00" departDelay="0.34" arrival="195.00" arrivalLane="48778511_1" arrivalPos="75.86" arrivalSpeed="11.46" duration="110.00" routeLength="1049.71" waitingTime="0.00" waitingCount="0" stopTime="0.00" timeLoss="18.13" rerouteNo="0" devices="tripinfo_veh166" vType="passenger" speedFactor="0.87" vaporized=""/>
    <tripinfo id="veh206" depart="106.00" departLane="33913538#8_1" departPos="1.39" departSpeed="0.00" departDelay="0.94" arrival="195.00" arrivalLane="-1135772296#0_0" arrivalPos="22.09" arrivalSpeed="6.87" duration="89.00" routeLength="1270.22" waitingTime="0.00" waitingCount="0" stopTime="0.00" timeLoss="10.64" rerouteNo="0" devices="tripinfo_veh206" vType="passenger" speedFactor="1.26" vaporized=""/>
    <tripinfo id="veh68" depart="35.00" departLane="-859735387#1_0" departPos="1.05" departSpeed="0.00" departDelay="0.32" arrival="199.00" arrivalLane="-996984133_1" arrivalPos="75.36" arrivalSpeed="8.11" duration="164.00" routeLength="1863.54" waitingTime="0.00" waitingCount="0" stopTime="0.00" timeLoss="21.45" rerouteNo="0" devices="tripinfo_veh68" vType="passenger" speedFactor="1.08" vaporized=""/>
    <tripinfo id="veh189" depart="97.00" departLane="-353939570#7_1" departPos="9.02" departSpeed="0.00" departDelay="0.61" arrival="199.00" arrivalLane="-1136119745_1" arrivalPos="22.49" arrivalSpeed="5.58" duration="102.00" routeLength="534.27" waitingTime="0.00" waitingCount="0" stopTime="0.00" timeLoss="9.19" rerouteNo="0" devices="tripinfo_veh189" vType="bicycle" speedFactor="1.04" vaporized=""/>
    <tripinfo id="veh40" depart="21.00" departLane="-33909936#0_1" departPos="6.72" departSpeed="0.00" departDelay="0.60" arrival="201.00" arrivalLane="-40236228#0_1" arrivalPos="90.81" arrivalSpeed="14.35" duration="180.00" routeLength="1497.27" waitingTime="36.00" waitingCount="2" stopTime="0.00" timeLoss="75.08" rerouteNo="0" devices="tripinfo_veh40" vType="passenger" speedFactor="1.06" vaporized=""/>
    <tripinfo id="veh46" depart="24.00" departLane="48778474#0_1" departPos="2.66" departSpeed="0.00" departDelay="0.54" arrival="204.00" arrivalLane="1364828571_0" arrivalPos="94.46" arrivalSpeed="5.01" duration="180.00" routeLength="1706.69" waitingTime="13.00" waitingCount="1" stopTime="0.00" timeLoss="35.14" rerouteNo="0" devices="tripinfo_veh46" vType="delivery" speedFactor="0.98" vaporized=""/>
    <tripinfo id="veh62" depart="32.00" departLane="40266620_1" departPos="11.92" departSpeed="0.00" departDelay="0.38" arrival="205.00" arrivalLane="-383582506_0" arrivalPos="44.83" arrivalSpeed="4.55" duration="173.00" routeLength="1900.43" waitingTime="4.00" waitingCount="1" stopTime="0.00" timeLoss="30.08" rerouteNo="0" devices="tripinfo_veh62" vType="passenger" speedFactor="1.03" vaporized=""/>
    <tripinfo id="veh58" depart="30.00" departLane="-1136289992_1" departPos="2.01" departSpeed="0.00" departDelay="0.42" arrival="206.00" arrivalLane="48736647#1_1" arrivalPos="90.38" arrivalSpeed="13.11" duration="176.00" routeLength="1993.23" waitingTime="0.00" waitingCount="0" stopTime="0.00" timeLoss="20.65" rerouteNo="0" devices="tripinfo_veh58" vType="delivery" speedFactor="0.96" vaporized=""/>
    <tripinfo id="veh238" depart="122.00" departLane="1135854143_1" departPos="5.47" departSpeed="0.00" departDelay="0.62" arrival="207.00" arrivalLane="1054663943_1" arrivalPos="27.53" arrivalSpeed="7.33" duration="85.00" routeLength="359.39" waitingTime="37.00" waitingCount="1" stopTime="0.00" timeLoss="52.16" rerouteNo="0" devices="tripinfo_veh238" vType="delivery" speedFactor="0.98" vaporized=""/>
    <tripinfo id="veh241" depart="123.00" departLane="-470210923#3_1" departPos="21.19" departSpeed="0.00" departDelay="0.09" arrival="207.00" arrivalLane="-1135772296#0_0" arrivalPos="22.09" arrivalSpeed="6.14" duration="84.00" routeLength="897.93" waitingTime="1.00" waitingCount="1" stopTime="0.00" timeLoss="21.45" rerouteNo="0" devices="tripinfo_veh241" vType="passenger" speedFactor="1.16" vaporized=""/>
    <tripinfo id="veh184" depart="94.00" departLane="-48778446#2_1" departPos="3.96" departSpeed="0.00" departDelay="0.16" arrival="209.00" arrivalLane="48778480#5_1" arrivalPos="195.85" arrivalSpeed="12.80" duration="115.00" routeLength="992.94" waitingTime="10.00" waitingCount="1" stopTime="0.00" timeLoss="33.06" rerouteNo="0" devices="tripinfo_veh184" vType="passenger" speedFactor="0.92" vaporized=""/>
    <tripinfo id="veh5" depart="3.00" departLane="-945793490#2_1" departPos="6.47" departSpeed="0.00" departDelay="0.45" arrival="212.00" arrivalLane="-48736624#2_1" arrivalPos="0.72" arrivalSpeed="8.50" duration="209.00" routeLength="1751.31" waitingTime="32.00" waitingCount="2" stopTime="0.00" timeLoss="63.04" rerouteNo="0" devices="tripinfo_veh5" vType="delivery" speedFactor="1.05" vaporized=""/>
    <tripinfo id="veh85" depart="44.00" departLane="-48736646#0_1" departPos="84.81" departSpeed="0.00" departDelay="0.65" arrival="215.00" arrivalLane="-383582498_0" arrivalPos="181.50" arrivalSpeed="2.16" duration="171.00" routeLength="1369.51" waitingTime="0.00" waitingCount="0" stopTime="0.00" timeLoss="27.84" rerouteNo="0" devices="tripinfo_veh85" vType="passenger" speedFactor="1.08" vaporized=""/>
    <tripinfo id="veh150" depart="77.00" departLane="-48778522_1" departPos="19.45" departSpeed="0.00" departDelay="0.50" arrival="215.00" arrivalLane="647998063#1_1" arrivalPos="65.11" arrivalSpeed="12.87" duration="138.00" routeLength="1185.94" waitingTime="8.00" waitingCount="1" stopTime="0.00" timeLoss="39.41" rerouteNo="0" devices="tripinfo_veh150" vType="passenger" speedFactor="0.93" vaporized=""/>
    <tripinfo id="veh122" depart="63.00" departLane="43573769#1_1" departPos="23.16" departSpeed="0.00" departDelay="0.78" arrival="216.00" arrivalLane="-40304754#5_1" arrivalPos="153.81" arrivalSpeed="16.43" duration="153.00" routeLength="1639.71" waitingTime="11.00" waitingCount="1" stopTime="0.00" timeLoss="53.17" rerouteNo="0" devices="tripinfo_veh122" vType="passenger" speedFactor="1.21" vaporized=""/>
    <tripinfo id="veh69" depart="36.00" departLane="48736620#1_2" departPos="25.82" departSpeed="0.00" departDelay="0.81" arrival="217.00" arrivalLane="48797773_1" arrivalPos="23.80" arrivalSpeed="12.29" duration="181.00" routeLength="1444.60" waitingTime="34.00" waitingCount="4" stopTime="0.00" timeLoss="70.61" rerouteNo="0" devices="tripinfo_veh69" vType="passenger" speedFactor="0.98" vaporized=""/>
    <tripinfo id="veh22" depart="12.00" departLane="-40299241#0_1" departPos="7.19" departSpeed="0.00" departDelay="0.78" arrival="218.00" arrivalLane="994066250_0" arrivalPos="136.89" arrivalSpeed="4.64" duration="206.00" routeLength="2196.85" waitingTime="5.00" waitingCount="1" stopTime="0.00" timeLoss="34.50" rerouteNo="0" devices="tripinfo_veh22" vType="passenger" speedFactor="1.03" vaporized=""/>
    <tripinfo id="veh142" depart="73.00" departLane="-222609002#3_1" departPos="14.10" departSpeed="0.00" departDelay="0.58" arrival="221.00" arrivalLane="48778453_1" arrivalPos="29.18" arrivalSpeed="13.32" duration="148.00" routeLength="1679.71" waitingTime="0.00" waitingCount="0" stopTime="0.00" timeLoss="28.15" rerouteNo="0" devices="tripinfo_veh142" vType="passenger" speedFactor="1.06" vaporized=""/>
    <tripinfo id="veh36" depart="19.00" departLane="-40266620_1" departPos="9.43" departSpeed="0.00" departDelay="0.64" arrival="223.00" arrivalLane="67736383_1" arrivalPos="44.81" arrivalSpeed="12.92" duration="204.00" routeLength="2190.34" waitingTime="4.00" waitingCount="1" stopTime="0.00" timeLoss="41.93" rerouteNo="0" devices="tripinfo_veh36" vType="emergency" speedFactor="1.00" vaporized=""/>
    <tripinfo id="veh183" depart="94.00" departLane="143207979#3_1" departPos="5.05" departSpeed="0.00" departDelay="0.67" arrival="223.00" arrivalLane="-647347140#1_1" arrivalPos="28.09" arrivalSpeed="11.94" duration="129.00" routeLength="1322.73" waitingTime="0.00" waitingCount="0" stopTime="0.00" timeLoss="20.09" rerouteNo="0" devices="tripinfo_veh183" vType="passenger" speedFactor="0.91" vaporized=""/>
    <tripinfo id="veh55" depart="29.00" departLane="-996489799#1_0" departPos="24.79" departSpeed="0.00" departDelay="0.95" arrival="224.00" arrivalLane="48736648#0_0" arrivalPos="0.20" arrivalSpeed="3.93" duration="195.00" routeLength="1426.59" waitingTime="49.00" waitingCount="1" stopTime="0.00" timeLoss="70.99" rerouteNo="0" devices="tripinfo_veh55" vType="passenger" speedFactor="0.91" vaporized=""/>
    <tripinfo id="veh92" depart="47.00" departLane="43544588#0_1" departPos="25.37" departSpeed="0.00" departDelay="0.08" arrival="224.00" arrivalLane="43546519#2_1" arrivalPos="8.00" arrivalSpeed="12.76" duration="177.00" routeLength="2241.78" waitingTime="0.00" waitingCount="0" stopTime="0.00" timeLoss="26.61" rerouteNo="0" devices="tripinfo_veh92" vType="passenger" speedFactor="1.10" vaporized=""/>
    <tripinfo id="veh105" depart="54.00" departLane="-996489799#1_0" departPos="46.01" departSpeed="0.00" departDelay="0.45" arrival="225.00" arrivalLane="-48736648#0_1" arrivalPos="0.20" arrivalSpeed="5.19" duration="171.00" routeLength="1393.66" waitingTime="39.00" waitingCount="1" stopTime="0.00" timeLoss="73.95" rerouteNo="0" devices="tripinfo_veh105" vType="passenger" speedFactor="1.12" vaporized=""/>
    <tripinfo id="veh30" depart="16.00" departLane="40236144#0_1" departPos="44.92" departSpeed="0.00" departDelay="0.70" arrival="226.00" arrivalLane="43546935#0_1" arrivalPos="223.83" arrivalSpeed="12.47" duration="210.00" routeLength="2243.75" waitingTime="8.00" waitingCount="1" stopTime="0.00" timeLoss="34.68" rerouteNo="0" devices="tripinfo_veh30" vType="passenger" speedFactor="0.94" vaporized=""/>