<?xml version="1.0" encoding="UTF-8"?>

<!-- generated on 2025-06-15 22:29:25 by Eclipse SUMO sumo Version 1.22.0
<sumoConfiguration xmlns:xsi="http://www.w3.org/2001/XMLSchema-instance" xsi:noNamespaceSchemaLocation="http://sumo.dlr.de/xsd/sumoConfiguration.xsd">

    <input>
        <net-file value="E:/licenta/oras-mediu/2025-06-05-11-45-23\osm.net.xml"/>
        <route-files value="E:/licenta/oras-mediu/2025-06-05-11-45-23\full.rou.xml,E:/licenta/oras-mediu/2025-06-05-11-45-23\ ped.rou.xml,E:/licenta/oras-mediu/2025-06-05-11-45-23\ truck.rou.xml"/>
        <additional-files value="E:/licenta/oras-mediu/2025-06-05-11-45-23\osm.poly.xml,E:/licenta/oras-mediu/2025-06-05-11-45-23\ vtypes.xml"/>
    </input>

    <output>
        <summary-output value="E:/licenta/oras-mediu/2025-06-05-11-45-23\summary.xml"/>
        <tripinfo-output value="evaluation_run_outputs\baseline_outputs\tripinfo_baseline_ep18.xml"/>
    </output>

    <processing>
        <ignore-route-errors value="true"/>
        <tls.actuated.jam-threshold value="30"/>
    </processing>

    <routing>
        <device.rerouting.adaptation-steps value="18"/>
        <device.rerouting.adaptation-interval value="10"/>
    </routing>

    <report>
        <verbose value="true"/>
        <duration-log.statistics value="true"/>
        <no-step-log value="true"/>
    </report>

    <gui_only>
        <gui-settings-file value="E:/licenta/oras-mediu/2025-06-05-11-45-23\osm.view.xml"/>
    </gui_only>

</sumoConfiguration>
-->

<tripinfos xmlns:xsi="http://www.w3.org/2001/XMLSchema-instance" xsi:noNamespaceSchemaLocation="http://sumo.dlr.de/xsd/tripinfo_file.xsd">
    <tripinfo id="veh23" depart="15.00" departLane="-43544588#0_1" departPos="101.21" departSpeed="0.00" departDelay="0.05" arrival="62.00" arrivalLane="43544197#8_1" arrivalPos="132.38" arrivalSpeed="15.03" duration="47.00" routeLength="560.53" waitingTime="0.00" waitingCount="0" stopTime="0.00" timeLoss="10.62" rerouteNo="0" devices="tripinfo_veh23" vType="passenger" speedFactor="1.15" vaporized=""/>
    <tripinfo id="veh9" depart="6.00" departLane="-43546343#1_1" departPos="12.25" departSpeed="0.00" departDelay="0.15" arrival="80.00" arrivalLane="1135854210_1" arrivalPos="13.11" arrivalSpeed="3.81" duration="74.00" routeLength="654.39" waitingTime="0.00" waitingCount="0" stopTime="0.00" timeLoss="15.54" rerouteNo="0" devices="tripinfo_veh9" vType="passenger" speedFactor="0.90" vaporized=""/>
    <tripinfo id="veh6" depart="4.00" departLane="-859732801#1_1" departPos="18.67" departSpeed="0.00" departDelay="0.10" arrival="92.00" arrivalLane="-48736646#1_1" arrivalPos="156.36" arrivalSpeed="13.65" duration="88.00" routeLength="1010.43" waitingTime="0.00" waitingCount="0" stopTime="0.00" timeLoss="14.70" rerouteNo="0" devices="tripinfo_veh6" vType="delivery" speedFactor="1.05" vaporized=""/>
    <tripinfo id="veh34" depart="23.00" departLane="-48797765#2_1" departPos="17.44" departSpeed="0.00" departDelay="0.90" arrival="109.00" arrivalLane="40236093_1" arrivalPos="79.24" arrivalSpeed="13.32" duration="86.00" routeLength="833.75" waitingTime="0.00" waitingCount="0" stopTime="0.00" timeLoss="21.34" rerouteNo="0" devices="tripinfo_veh34" vType="emergency" speedFactor="1.00" vaporized=""/>
    <tripinfo id="veh5" depart="4.00" departLane="383582498_0" departPos="98.97" departSpeed="0.00" departDelay="0.75" arrival="114.00" arrivalLane="43546460#6_1" arrivalPos="16.33" arrivalSpeed="13.26" duration="110.00" routeLength="882.02" waitingTime="0.00" waitingCount="0" stopTime="0.00" timeLoss="20.92" rerouteNo="0" devices="tripinfo_veh5" vType="passenger" speedFactor="1.02" vaporized=""/>
    <personinfo id="ped2" depart="10.00" type="DEFAULT_PEDTYPE" speedFactor="1.05" duration="106.00" waitingTime="0.00" timeLoss="11.74" traveltime="106.00">
        <walk depart="10.00" departPos="0.00" arrival="116.00" arrivalPos="0.11" duration="106.00" routeLength="137.81" timeLoss="11.74" maxSpeed="1.46"/>
    </personinfo>
    <tripinfo id="veh79" depart="52.00" departLane="43544001#5_1" departPos="3.96" departSpeed="0.00" departDelay="0.65" arrival="122.00" arrivalLane="143207979#6_1" arrivalPos="223.32" arrivalSpeed="11.81" duration="70.00" routeLength="725.01" waitingTime="0.00" waitingCount="0" stopTime="0.00" timeLoss="15.28" rerouteNo="0" devices="tripinfo_veh79" vType="delivery" speedFactor="0.98" vaporized=""/>
    <tripinfo id="veh98" depart="64.00" departLane="-48778503#1_1" departPos="42.20" departSpeed="0.00" departDelay="0.30" arrival="129.00" arrivalLane="-578560104#6_1" arrivalPos="101.21" arrivalSpeed="14.15" duration="65.00" routeLength="756.96" waitingTime="0.00" waitingCount="0" stopTime="0.00" timeLoss="10.45" rerouteNo="0" devices="tripinfo_veh98" vType="passenger" speedFactor="1.02" vaporized=""/>
    <tripinfo id="veh95" depart="62.00" departLane="48778475#1_1" departPos="2.83" departSpeed="0.00" departDelay="0.25" arrival="133.00" arrivalLane="40345930_1" arrivalPos="22.03" arrivalSpeed="12.48" duration="71.00" routeLength="769.31" waitingTime="0.00" waitingCount="0" stopTime="0.00" timeLoss="11.97" rerouteNo="0" devices="tripinfo_veh95" vType="motorcycle" speedFactor="0.98" vaporized=""/>
    <tripinfo id="veh172" depart="112.00" departLane="40236220#2_1" departPos="3.93" departSpeed="0.00" departDelay="0.20" arrival="141.00" arrivalLane="40236144#2_1" arrivalPos="51.61" arrivalSpeed="14.28" duration="29.00" routeLength="331.56" waitingTime="0.00" waitingCount="0" stopTime="0.00" timeLoss="5.23" rerouteNo="0" devices="tripinfo_veh172" vType="passenger" speedFactor="1.04" vaporized=""/>
    <tripinfo id="veh13" depart="9.00" departLane="1205541344_0" departPos="68.26" departSpeed="0.00" departDelay="0.55" arrival="142.00" arrivalLane="-43544624#0_1" arrivalPos="295.18" arrivalSpeed="12.66" duration="133.00" routeLength="1546.45" waitingTime="0.00" waitingCount="0" stopTime="0.00" timeLoss="15.50" rerouteNo="0" devices="tripinfo_veh13" vType="emergency" speedFactor="1.00" vaporized=""/>
    <tripinfo id="veh12" depart="8.00" departLane="354259927_1" departPos="93.35" departSpeed="0.00" departDelay="0.20" arrival="144.00" arrivalLane="222605084#2_1" arrivalPos="1.52" arrivalSpeed="5.17" duration="136.00" routeLength="1470.36" waitingTime="0.00" waitingCount="0" stopTime="0.00" timeLoss="17.50" rerouteNo="0" devices="tripinfo_veh12" vType="delivery" speedFactor="0.97" vaporized=""/>
    <tripinfo id="veh22" depart="15.00" departLane="383582513_0" departPos="41.53" departSpeed="0.00" departDelay="0.70" arrival="145.00" arrivalLane="48778489#0_2" arrivalPos="265.37" arrivalSpeed="11.94" duration="130.00" routeLength="1337.05" waitingTime="0.00" waitingCount="0" stopTime="0.00" timeLoss="16.83" rerouteNo="0" devices="tripinfo_veh22" vType="passenger" speedFactor="0.89" vaporized=""/>
    <tripinfo id="veh29" depart="19.00" departLane="-40299739#0_1" departPos="52.77" departSpeed="0.00" departDelay="0.15" arrival="145.00" arrivalLane="-48736617#0_1" arrivalPos="24.82" arrivalSpeed="12.15" duration="126.00" routeLength="1481.32" waitingTime="0.00" waitingCount="0" stopTime="0.00" timeLoss="24.91" rerouteNo="0" devices="tripinfo_veh29" vType="passenger" speedFactor="1.10" vaporized=""/>
    <tripinfo id="veh8" depart="6.00" departLane="40314583#4_1" departPos="16.73" departSpeed="0.00" departDelay="0.80" arrival="146.00" arrivalLane="48778449#1_1" arrivalPos="70.68" arrivalSpeed="15.03" duration="140.00" routeLength="1334.78" waitingTime="18.00" waitingCount="2" stopTime="0.00" timeLoss="50.59" rerouteNo="0" devices="tripinfo_veh8" vType="passenger" speedFactor="1.12" vaporized=""/>
    <tripinfo id="veh21" depart="14.00" departLane="647998063#1_1" departPos="15.72" departSpeed="0.00" departDelay="0.35" arrival="148.00" arrivalLane="-48778514#1_1" arrivalPos="255.62" arrivalSpeed="15.65" duration="134.00" routeLength="1528.86" waitingTime="2.00" waitingCount="1" stopTime="0.00" timeLoss="32.75" rerouteNo="0" devices="tripinfo_veh21" vType="passenger" speedFactor="1.13" vaporized=""/>
    <tripinfo id="veh38" depart="25.00" departLane="-40306149_1" departPos="29.13" departSpeed="0.00" departDelay="0.30" arrival="148.00" arrivalLane="859732803#0_0" arrivalPos="20.07" arrivalSpeed="3.66" duration="123.00" routeLength="1161.61" waitingTime="0.00" waitingCount="0" stopTime="0.00" timeLoss="19.13" rerouteNo="0" devices="tripinfo_veh38" vType="passenger" speedFactor="0.88" vaporized=""/>
    <tripinfo id="veh93" depart="61.00" departLane="-48778485#1_1" departPos="3.47" departSpeed="0.00" departDelay="0.55" arrival="149.00" arrivalLane="40330557#2_1" arrivalPos="100.16" arrivalSpeed="15.30" duration="88.00" routeLength="1059.91" waitingTime="0.00" waitingCount="0" stopTime="0.00" timeLoss="18.31" rerouteNo="0" devices="tripinfo_veh93" vType="passenger" speedFactor="1.13" vaporized=""/>
    <tripinfo id="veh116" depart="76.00" departLane="40265775#0_1" departPos="71.66" departSpeed="0.00" departDelay="0.60" arrival="150.00" arrivalLane="48778510#1_1" arrivalPos="102.69" arrivalSpeed="15.59" duration="74.00" routeLength="939.81" waitingTime="0.00" waitingCount="0" stopTime="0.00" timeLoss="16.97" rerouteNo="0" devices="tripinfo_veh116" vType="passenger" speedFactor="1.21" vaporized=""/>
    <tripinfo id="veh168" depart="110.00" departLane="-1250915721#0_1" departPos="0.41" departSpeed="0.00" departDelay="0.80" arrival="151.00" arrivalLane="222605084#2_1" arrivalPos="1.52" arrivalSpeed="4.33" duration="41.00" routeLength="159.72" waitingTime="0.00" waitingCount="0" stopTime="0.00" timeLoss="11.66" rerouteNo="0" devices="tripinfo_veh168" vType="motorcycle" speedFactor="1.00" vaporized=""/>
    <tripinfo id="veh31" depart="21.00" departLane="-48736640#1_1" departPos="41.16" departSpeed="0.00" departDelay="0.85" arrival="153.00" arrivalLane="258551297#0_0" arrivalPos="10.90" arrivalSpeed="4.53" duration="132.00" routeLength="1100.91" waitingTime="31.00" waitingCount="1" stopTime="0.00" timeLoss="50.63" rerouteNo="0" devices="tripinfo_veh31" vType="passenger" speedFactor="1.03" vaporized=""/>
    <tripinfo id="veh115" depart="75.00" departLane="-304695350#1_1" departPos="83.81" departSpeed="0.00" departDelay="0.25" arrival="156.00" arrivalLane="-43546449#2_1" arrivalPos="49.54" arrivalSpeed="13.50" duration="81.00" routeLength="836.28" waitingTime="0.00" waitingCount="0" stopTime="0.00" timeLoss="14.59" rerouteNo="0" devices="tripinfo_veh115" vType="delivery" speedFactor="1.06" vaporized=""/>
    <tripinfo id="veh1" depart="1.00" departLane="43546789#0_1" departPos="0.67" departSpeed="0.00" departDelay="0.35" arrival="164.00" arrivalLane="40314853#1_1" arrivalPos="111.61" arrivalSpeed="13.87" duration="163.00" routeLength="1855.48" waitingTime="13.00" waitingCount="1" stopTime="0.00" timeLoss="36.97" rerouteNo="0" devices="tripinfo_veh1" vType="passenger" speedFactor="1.08" vaporized=""/>
    <tripinfo id="veh24" depart="16.00" departLane="-48736638#1_1" departPos="41.66" departSpeed="0.00" departDelay="0.40" arrival="165.00" arrivalLane="945793486#0_0" arrivalPos="4.75" arrivalSpeed="5.67" duration="149.00" routeLength="1361.18" waitingTime="17.00" waitingCount="1" stopTime="0.00" timeLoss="54.07" rerouteNo="0" devices="tripinfo_veh24" vType="passenger" speedFactor="1.12" vaporized=""/>
    <tripinfo id="veh102" depart="67.00" departLane="43544179#4_1" departPos="10.32" departSpeed="0.00" departDelay="0.70" arrival="165.00" arrivalLane="48778525#1_1" arrivalPos="14.99" arrivalSpeed="14.84" duration="98.00" routeLength="1182.19" waitingTime="0.00" waitingCount="0" stopTime="0.00" timeLoss="18.00" rerouteNo="0" devices="tripinfo_veh102" vType="passenger" speedFactor="1.12" vaporized=""/>
    <tripinfo id="veh19" depart="13.00" departLane="-1136289987_1" departPos="66.12" departSpeed="0.00" departDelay="0.65" arrival="167.00" arrivalLane="-996486453_1" arrivalPos="111.92" arrivalSpeed="11.39" duration="154.00" routeLength="1421.31" waitingTime="0.00" waitingCount="0" stopTime="0.00" timeLoss="27.84" rerouteNo="0" devices="tripinfo_veh19" vType="passenger" speedFactor="0.87" vaporized=""/>
    <tripinfo id="veh71" depart="47.00" departLane="48778457#1_1" departPos="24.98" departSpeed="0.00" departDelay="0.85" arrival="171.00" arrivalLane="-40299739#3_1" arrivalPos="92.34" arrivalSpeed="14.61" duration="124.00" routeLength="937.23" waitingTime="25.00" waitingCount="2" stopTime="0.00" timeLoss="53.87" rerouteNo="0" devices="tripinfo_veh71" vType="passenger" speedFactor="1.06" vaporized=""/>
    <tripinfo id="veh145" depart="95.00" departLane="996984133_1" departPos="47.84" departSpeed="0.00" departDelay="0.75" arrival="179.00" arrivalLane="-48778508#0_1" arrivalPos="11.34" arrivalSpeed="10.78" duration="84.00" routeLength="577.49" waitingTime="0.00" waitingCount="0" stopTime="0.00" timeLoss="19.51" rerouteNo="0" devices="tripinfo_veh145" vType="motorcycle" speedFactor="0.97" vaporized=""/>
    <tripinfo id="veh119" depart="78.00" departLane="43547017#0_1" departPos="31.86" departSpeed="0.00" departDelay="0.65" arrival="181.00" arrivalLane="-1136284448_1" arrivalPos="34.50" arrivalSpeed="7.33" duration="103.00" routeLength="1177.57" waitingTime="0.00" waitingCount="0" stopTime="0.00" timeLoss="16.48" rerouteNo="0" devices="tripinfo_veh119" vType="motorcycle" speedFactor="1.04" vaporized=""/>
    <tripinfo id="veh33" depart="22.00" departLane="-43544197#4_1" departPos="40.59" departSpeed="0.00" departDelay="0.55" arrival="182.00" arrivalLane="40266619_1" arrivalPos="33.64" arrivalSpeed="14.36" duration="160.00" routeLength="1954.08" waitingTime="0.00" waitingCount="0" stopTime="0.00" timeLoss="21.30" rerouteNo="0" devices="tripinfo_veh33" vType="passenger" speedFactor="1.04" vaporized=""/>
    <tripinfo id="veh65" depart="43.00" departLane="48736664#0_1" departPos="72.59" departSpeed="0.00" departDelay="0.75" arrival="182.00" arrivalLane="48778456#0_1" arrivalPos="27.19" arrivalSpeed="10.86" duration="139.00" routeLength="1166.98" waitingTime="23.00" waitingCount="1" stopTime="0.00" timeLoss="48.25" rerouteNo="0" devices="tripinfo_veh65" vType="passenger" speedFactor="0.98" vaporized=""/>
    <tripinfo id="veh158" depart="103.00" departLane="92198452#0_1" departPos="21.33" departSpeed="0.00" departDelay="0.30" arrival="185.00" arrivalLane="-40345956#3_1" arrivalPos="5.00" arrivalSpeed="7.00" duration="82.00" routeLength="944.07" waitingTime="0.00" waitingCount="0" stopTime="0.00" timeLoss="11.77" rerouteNo="0" devices="tripinfo_veh158" vType="passenger" speedFactor="1.00" vaporized=""/>
    <tripinfo id="veh27" depart="18.00" departLane="-E40_0" departPos="1.62" departSpeed="0.00" departDelay="0.45" arrival="186.00" arrivalLane="530106516#0_1" arrivalPos="77.36" arrivalSpeed="11.59" duration="168.00" routeLength="1181.21" waitingTime="60.00" waitingCount="3" stopTime="0.00" timeLoss="82.67" rerouteNo="0" devices="tripinfo_veh27" vType="motorcycle" speedFactor="1.02" vaporized=""/>
    <tripinfo id="veh53" depart="35.00" departLane="-40236220#2_1" departPos="6.22" departSpeed="0.00" departDelay="0.55" arrival="186.00" arrivalLane="859734514#1_0" arrivalPos="56.51" arrivalSpeed="5.26" duration="151.00" routeLength="1247.24" waitingTime="13.00" waitingCount="1" stopTime="0.00" timeLoss="39.16" rerouteNo="0" devices="tripinfo_veh53" vType="passenger" speedFactor="0.95" vaporized=""/>
    <tripinfo id="veh57" depart="38.00" departLane="48736621#0_1" departPos="6.00" departSpeed="0.00" departDelay="0.95" arrival="187.00" arrivalLane="258551297#0_0" arrivalPos="10.90" arrivalSpeed="4.99" duration="149.00" routeLength="1069.17" waitingTime="42.00" waitingCount="1" stopTime="0.00" timeLoss="75.98" rerouteNo="0" devices="tripinfo_veh57" vType="passenger" speedFactor="1.12" vaporized=""/>
    <personinfo id="ped16" depart="80.00" type="DEFAULT_PEDTYPE" speedFactor="0.91" duration="109.00" waitingTime="0.00" timeLoss="10.57" traveltime="109.00">
        <walk depart="80.00" departPos="0.00" arrival="189.00" arrivalPos="22.14" duration="109.00" routeLength="124.41" timeLoss="10.57" maxSpeed="1.26"/>
    </personinfo>
    <tripinfo id="veh83" depart="54.00" departLane="-48736645_1" departPos="34.77" departSpeed="0.00" departDelay="0.05" arrival="189.00" arrivalLane="-43546039#2_1" arrivalPos="275.61" arrivalSpeed="13.84" duration="135.00" routeLength="1648.08" waitingTime="0.00" waitingCount="0" stopTime="0.00" timeLoss="21.99" rerouteNo="0" devices="tripinfo_veh83" vType="passenger" speedFactor="1.08" vaporized=""/>
    <tripinfo id="veh96" depart="63.00" departLane="383582511#1_0" departPos="1.68" departSpeed="0.00" departDelay="0.60" arrival="189.00" arrivalLane="-647610982#2_1" arrivalPos="11.90" arrivalSpeed="9.92" duration="126.00" routeLength="1377.01" waitingTime="0.00" waitingCount="0" stopTime="0.00" timeLoss="17.80" rerouteNo="0" devices="tripinfo_veh96" vType="motorcycle" speedFactor="0.94" vaporized=""/>
    <tripinfo id="veh219" depart="143.00" departLane="-352818096#1_0" departPos="3.65" departSpeed="0.00" departDelay="0.65" arrival="189.00" arrivalLane="-878079387#0_0" arrivalPos="170.01" arrivalSpeed="12.85" duration="46.00" routeLength="506.07" waitingTime="0.00" waitingCount="0" stopTime="0.00" timeLoss="5.72" rerouteNo="0" devices="tripinfo_veh219" vType="delivery" speedFactor="0.93" vaporized=""/>
    <tripinfo id="veh45" depart="30.00" departLane="43546460#10_1" departPos="50.31" departSpeed="0.00" departDelay="0.75" arrival="191.00" arrivalLane="-859726677#0_1" arrivalPos="35.20" arrivalSpeed="4.77" duration="161.00" routeLength="1751.34" waitingTime="6.00" waitingCount="1" stopTime="0.00" timeLoss="24.74" rerouteNo="0" devices="tripinfo_veh45" vType="delivery" speedFactor="0.98" vaporized=""/>
    <tripinfo id="veh55" depart="36.00" departLane="-353939570#8_1" departPos="34.13" departSpeed="0.00" departDelay="0.25" arrival="191.00" arrivalLane="354252039#1_1" arrivalPos="19.16" arrivalSpeed="12.84" duration="155.00" routeLength="1330.41" waitingTime="19.00" waitingCount="3" stopTime="0.00" timeLoss="51.15" rerouteNo="0" devices="tripinfo_veh55" vType="delivery" speedFactor="0.96" vaporized=""/>
    <tripinfo id="veh61" depart="40.00" departLane="-40299738_1" departPos="19.48" departSpeed="0.00" departDelay="0.35" arrival="192.00" arrivalLane="1251292611_1" arrivalPos="3.48" arrivalSpeed="5.73" duration="152.00" routeLength="1682.54" waitingTime="0.00" waitingCount="0" stopTime="0.00" timeLoss="18.28" rerouteNo="0" devices="tripinfo_veh61" vType="passenger" speedFactor="1.09" vaporized=""/>
    <tripinfo id="veh66" depart="43.00" departLane="-48736620#0_1" departPos="26.15" departSpeed="0.00" departDelay="0.10" arrival="200.00" arrivalLane="-383582519_0" arrivalPos="74.79" arrivalSpeed="4.74" duration="157.00" routeLength="1013.97" waitingTime="48.00" waitingCount="1" stopTime="0.00" timeLoss="69.91" rerouteNo="0" devices="tripinfo_veh66" vType="passenger" speedFactor="0.98" vaporized=""/>
    <tripinfo id="veh36" depart="24.00" departLane="-48736621#2_1" departPos="7.55" departSpeed="0.00" departDelay="0.60" arrival="201.00" arrivalLane="984521611#1_0" arrivalPos="22.34" arrivalSpeed="5.01" duration="177.00" routeLength="1410.73" waitingTime="30.00" waitingCount="3" stopTime="0.00" timeLoss="74.13" rerouteNo="0" devices="tripinfo_veh36" vType="passenger" speedFactor="1.09" vaporized=""/>
    <tripinfo id="veh126" depart="82.00" departLane="-43547579#3_1" departPos="71.11" departSpeed="0.00" departDelay="0.10" arrival="202.00" arrivalLane="-33913538#8_1" arrivalPos="2.19" arrivalSpeed="13.74" duration="120.00" routeLength="1361.09" waitingTime="3.00" waitingCount="1" stopTime="0.00" timeLoss="20.47" rerouteNo="0" devices="tripinfo_veh126" vType="delivery" speedFactor="1.00" vaporized=""/>
    <tripinfo id="veh178" depart="116.00" departLane="-258551283#1_1" departPos="42.79" departSpeed="0.00" departDelay="0.30" arrival="202.00" arrivalLane="43544179#12_1" arrivalPos="77.06" arrivalSpeed="5.92" duration="86.00" routeLength="458.79" waitingTime="0.00" waitingCount="0" stopTime="0.00" timeLoss="8.35" rerouteNo="0" devices="tripinfo_veh178" vType="bicycle" speedFactor="1.07" vaporized=""/>
    <tripinfo id="veh40" depart="26.00" departLane="1136283381_1" departPos="20.13" departSpeed="0.00" departDelay="0.00" arrival="203.00" arrivalLane="-222605084#1_1" arrivalPos="0.37" arrivalSpeed="6.14" duration="177.00" routeLength="1367.63" waitingTime="22.00" waitingCount="1" stopTime="0.00" timeLoss="55.82" rerouteNo="0" devices="tripinfo_veh40" vType="passenger" speedFactor="1.17" vaporized=""/>
    <tripinfo id="veh277" depart="181.00" departLane="945793490#3_1" departPos="30.39" departSpeed="0.00" departDelay="0.95" arrival="203.00" arrivalLane="945793491#1_1" arrivalPos="67.96" arrivalSpeed="4.85" duration="22.00" routeLength="97.46" waitingTime="0.00" waitingCount="0" stopTime="0.00" timeLoss="3.59" rerouteNo="0" devices="tripinfo_veh277" vType="delivery" speedFactor="0.97" vaporized=""/>
    <tripinfo id="veh47" depart="31.00" departLane="40236144#2_1" departPos="0.60" departSpeed="0.00" departDelay="0.45" arrival="205.00" arrivalLane="-43544197#0_1" arrivalPos="48.34" arrivalSpeed="13.13" duration="174.00" routeLength="2036.67" waitingTime="0.00" waitingCount="0" stopTime="0.00" timeLoss="23.71" rerouteNo="0" devices="tripinfo_veh47" vType="passenger" speedFactor="1.00" vaporized=""/>
    <tripinfo id="veh176" depart="115.00" departLane="-43573547#1_1" departPos="24.39" departSpeed="0.00" departDelay="0.60" arrival="205.00" arrivalLane="48778508#4_1" arrivalPos="24.77" arrivalSpeed="12.36" duration="90.00" routeLength="925.79" waitingTime="0.00" waitingCount="0" stopTime="0.00" timeLoss="16.73" rerouteNo="0" devices="tripinfo_veh176" vType="passenger" speedFactor="0.97" vaporized=""/>
    <tripinfo id="veh11" depart="8.00" departLane="258551284#0_1" departPos="64.40" departSpeed="0.00" departDelay="0.85" arrival="207.00" arrivalLane="859735387#1_0" arrivalPos="30.39" arrivalSpeed="5.69" duration="199.00" routeLength="2325.20" waitingTime="0.00" waitingCount="0" stopTime="0.00" timeLoss="23.85" rerouteNo="0" devices="tripinfo_veh11" vType="passenger" speedFactor="1.04" vaporized=""/>
    <tripinfo id="veh107" depart="70.00" departLane="-E11_2" departPos="5.03" departSpeed="0.00" departDelay="0.45" arrival="207.00" arrivalLane="-250295513_1" arrivalPos="43.99" arrivalSpeed="12.14" duration="137.00" routeLength="1649.24" waitingTime="0.00" waitingCount="0" stopTime="0.00" timeLoss="18.72" rerouteNo="0" devices="tripinfo_veh107" vType="motorcycle" speedFactor="1.04" vaporized=""/>
    <tripinfo id="veh195" depart="127.00" departLane="48788485#4_1" departPos="0.03" departSpeed="0.00" departDelay="0.25" arrival="208.00" arrivalLane="43546935#2_1" arrivalPos="44.28" arrivalSpeed="14.92" duration="81.00" routeLength="944.16" waitingTime="0.00" waitingCount="0" stopTime="0.00" timeLoss="16.85" rerouteNo="0" devices="tripinfo_veh195" vType="passenger" speedFactor="1.10" vaporized=""/>
    <tripinfo id="veh41" depart="27.00" departLane="222609004#0_1" departPos="24.91" departSpeed="0.00" departDelay="0.35" arrival="211.00" arrivalLane="43546064#2_1" arrivalPos="103.27" arrivalSpeed="14.02" duration="184.00" routeLength="2061.10" waitingTime="4.00" waitingCount="1" stopTime="0.00" timeLoss="36.70" rerouteNo="0" devices="tripinfo_veh41" vType="passenger" speedFactor="1.05" vaporized=""/>
    <tripinfo id="veh137" depart="91.00" departLane="48736637_1" departPos="4.73" departSpeed="0.00" departDelay="1.95" arrival="211.00" arrivalLane="-48797768_1" arrivalPos="94.07" arrivalSpeed="11.64" duration="120.00" routeLength="799.65" waitingTime="26.00" waitingCount="4" stopTime="0.00" timeLoss="52.29" rerouteNo="0" devices="tripinfo_veh137" vType="passenger" speedFactor="0.90" vaporized=""/>
    <tripinfo id="veh3" depart="2.00" departLane="43544138#3_1" departPos="27.14" departSpeed="0.00" departDelay="0.05" arrival="213.00" arrivalLane="-383582500_0" arrivalPos="179.38" arrivalSpeed="2.93" duration="211.00" routeLength="1871.04" waitingTime="0.00" waitingCount="0" stopTime="0.00" timeLoss="34.34" rerouteNo="0" devices="tripinfo_veh3" vType="passenger" speedFactor="1.08" vaporized=""/>
    <tripinfo id="veh18" depart="12.00" departLane="-43546460#8_1" departPos="31.94" departSpeed="0.00" departDelay="0.30" arrival="213.00" arrivalLane="859728207_0" arrivalPos="18.62" arrivalSpeed="5.40" duration="201.00" routeLength="2196.75" waitingTime="0.00" waitingCount="0" stopTime="0.00" timeLoss="24.62" rerouteNo="0" devices="tripinfo_veh18" vType="passenger" speedFactor="1.01" vaporized=""/>
    <tripinfo id="veh153" depart="100.00" departLane="-48778500#1_1" departPos="49.67" departSpeed="0.00" departDelay="0.55" arrival="213.00" arrivalLane="43544179#12_1" arrivalPos="77.06" arrivalSpeed="15.74" duration="113.00" routeLength="1329.65" waitingTime="0.00" waitingCount="0" stopTime="0.00" timeLoss="27.69" rerouteNo="0" devices="tripinfo_veh153" vType="passenger" speedFactor="1.18" vaporized=""/>
    <tripinfo id="veh70" depart="46.00" departLane="40330575#3_1" departPos="18.25" departSpeed="0.00" departDelay="0.50" arrival="218.00" arrivalLane="-48736624#1_1" arrivalPos="55.65" arrivalSpeed="13.81" duration="172.00" routeLength="1863.08" waitingTime="14.00" waitingCount="1" stopTime="0.00" timeLoss="41.80" rerouteNo="0" devices="tripinfo_veh70" vType="passenger" speedFactor="1.05" vaporized=""/>
    <tripinfo id="veh109" depart="71.00" departLane="48778481#4_1" departPos="134.91" departSpeed="0.00" departDelay="0.15" arrival="218.00" arrivalLane="1250915720#1_1" arrivalPos="5.08" arrivalSpeed="5.14" duration="147.00" routeLength="1321.43" waitingTime="12.00" waitingCount="1" stopTime="0.00" timeLoss="34.84" rerouteNo="0" devices="tripinfo_veh109" vType="emergency" speedFactor="1.00" vaporized=""/>
    <tripinfo id="veh62" depart="41.00" departLane="-92198453#2_1" departPos="23.08" departSpeed="0.00" departDelay="0.70" arrival="219.00" arrivalLane="43546688#2_1" arrivalPos="41.74" arrivalSpeed="11.48" duration="178.00" routeLength="1777.27" waitingTime="0.00" waitingCount="0" stopTime="0.00" timeLoss="32.72" rerouteNo="0" devices="tripinfo_veh62" vType="passenger" speedFactor="0.90" vaporized=""/>
    <tripinfo id="veh63" depart="41.00" departLane="43548506_1" departPos="37.55" departSpeed="0.00" departDelay="0.05" arrival="222.00" arrivalLane="1250915720#0_1" arrivalPos="2.68" arrivalSpeed="5.14" duration="181.00" routeLength="1755.47" waitingTime="19.00" waitingCount="1" stopTime="0.00" timeLoss="42.14" rerouteNo="0" devices="tripinfo_veh63" vType="passenger" speedFactor="1.02" vaporized=""/>
    <tripinfo id="veh64" depart="42.00" departLane="-383582504#0_0" departPos="1.74" departSpeed="0.00" departDelay="0.40" arrival="228.00" arrivalLane="48778478#2_1" arrivalPos="30.02" arrivalSpeed="14.97" duration="186.00" routeLength="1334.51" waitingTime="62.00" waitingCount="1" stopTime="0.00" timeLoss="92.96" rerouteNo="0" devices="tripinfo_veh64" vType="passenger" speedFactor="1.08" vaporized=""/>
    <tripinfo id="veh225" depart="147.00" departLane="-43544179#11_1" departPos="28.41" departSpeed="0.00" departDelay="0.75" arrival="229.00" arrivalLane="-143207979#7_1" arrivalPos="72.83" arrivalSpeed="6.35" duration="82.00" routeLength="765.91" waitingTime="0.00" waitingCount="0" stopTime="0.00" timeLoss="21.79" rerouteNo="0" devices="tripinfo_veh225" vType="passenger" speedFactor="0.97" vaporized=""/>
    <tripinfo id="veh42" depart="28.00" departLane="223883703_0" departPos="23.27" departSpeed="0.00" departDelay="0.70" arrival="232.00" arrivalLane="48778525#0_1" arrivalPos="49.94" arrivalSpeed="12.06" duration="204.00" routeLength="1773.11" waitingTime="41.00" waitingCount="1" stopTime="0.00" timeLoss="67.56" rerouteNo="0" devices="tripinfo_veh42" vType="motorcycle" speedFactor="1.00" vaporized=""/>
    <tripinfo id="veh130" depart="85.00" departLane="-1135854210_1" departPos="7.50" departSpeed="0.00" departDelay="0.50" arrival="232.00" arrivalLane="1136279388_0" arrivalPos="33.51" arrivalSpeed="5.79" duration="147.00" routeLength="1530.43" waitingTime="12.00" waitingCount="2" stopTime="0.00" timeLoss="40.75" rerouteNo="0" devices="tripinfo_veh130" vType="passenger" speedFactor="1.13" vaporized=""/>
    <tripinfo id="veh155" depart="101.00" departLane="-43573573#3_1" departPos="25.92" departSpeed="0.00" departDelay="0.25" arrival="233.00" arrivalLane="1250915721#1_1" arrivalPos="5.01" arrivalSpeed="5.42" duration="132.00" routeLength="1423.60" waitingTime="1.00" waitingCount="1" stopTime="0.00" timeLoss="20.81" rerouteNo="0" devices="tripinfo_veh155" vType="passenger" speedFactor="1.07" vaporized=""/>
    <tripinfo id="veh179" depart="117.00" departLane="-48778478#2_1" departPos="12.59" departSpeed="0.00" departDelay="0.65" arrival="233.00" arrivalLane="-647755347#0_1" arrivalPos="70.01" arrivalSpeed="11.24" duration="116.00" routeLength="1139.88" waitingTime="0.00" waitingCount="0" stopTime="0.00" timeLoss="27.00" rerouteNo="0" devices="tripinfo_veh179" vType="motorcycle" speedFactor="1.00" vaporized=""/>
    <tripinfo id="veh212" depart="138.00" departLane="-48778494#0_1" departPos="45.61" departSpeed="0.00" departDelay="0.20" arrival="233.00" arrivalLane="40345956#3_1" arrivalPos="4.99" arrivalSpeed="13.28" duration="95.00" routeLength="957.09" waitingTime="3.00" waitingCount="1" stopTime="0.00" timeLoss="19.42" rerouteNo="0" devices="tripinfo_veh212" vType="passenger" speedFactor="0.96" vaporized=""/>
    <tripinfo id="veh4" depart="3.00" departLane="43546688#2_1" departPos="31.02" departSpeed="0.00" departDelay="0.40" arrival="234.00" arrivalLane="48736631_1" arrivalPos="82.80" arrivalSpeed="7.71" duration="231.00" routeLength="2133.23" waitingTime="31.00" waitingCount="2" stopTime="0.00" timeLoss="58.99" rerouteNo="0" devices="tripinfo_veh4" vType="passenger" speedFactor="0.94" vaporized=""/>