<?xml version="1.0" encoding="UTF-8"?>

<!-- generated on 2025-06-15 21:40:21 by Eclipse SUMO sumo Version 1.22.0
<sumoConfiguration xmlns:xsi="http://www.w3.org/2001/XMLSchema-instance" xsi:noNamespaceSchemaLocation="http://sumo.dlr.de/xsd/sumoConfiguration.xsd">

    <input>
        <net-file value="E:/licenta/oras-mediu/2025-06-05-11-45-23\osm.net.xml"/>
        <route-files value="E:/licenta/oras-mediu/2025-06-05-11-45-23\full.rou.xml,E:/licenta/oras-mediu/2025-06-05-11-45-23\ ped.rou.xml,E:/licenta/oras-mediu/2025-06-05-11-45-23\ truck.rou.xml"/>
        <additional-files value="E:/licenta/oras-mediu/2025-06-05-11-45-23\osm.poly.xml,E:/licenta/oras-mediu/2025-06-05-11-45-23\ vtypes.xml"/>
    </input>

    <output>
        <summary-output value="E:/licenta/oras-mediu/2025-06-05-11-45-23\summary.xml"/>
        <tripinfo-output value="evaluation_run_outputs\baseline_outputs\tripinfo_baseline_ep5.xml"/>
    </output>

    <processing>
        <ignore-route-errors value="true"/>
        <tls.actuated.jam-threshold value="30"/>
    </processing>

    <routing>
        <device.rerouting.adaptation-steps value="18"/>
        <device.rerouting.adaptation-interval value="10"/>
    </routing>

    <report>
        <verbose value="true"/>
        <duration-log.statistics value="true"/>
        <no-step-log value="true"/>
    </report>

    <gui_only>
        <gui-settings-file value="E:/licenta/oras-mediu/2025-06-05-11-45-23\osm.view.xml"/>
    </gui_only>

</sumoConfiguration>
-->

<tripinfos xmlns:xsi="http://www.w3.org/2001/XMLSchema-instance" xsi:noNamespaceSchemaLocation="http://sumo.dlr.de/xsd/tripinfo_file.xsd">
    <personinfo id="ped3" depart="15.00" type="DEFAULT_PEDTYPE" speedFactor="1.26" duration="28.00" waitingTime="0.00" timeLoss="3.27" traveltime="28.00">
        <walk depart="15.00" departPos="0.00" arrival="43.00" arrivalPos="26.49" duration="28.00" routeLength="43.29" timeLoss="3.27" maxSpeed="1.75"/>
    </personinfo>
    <tripinfo id="veh60" depart="42.00" departLane="40236203#2_1" departPos="5.22" departSpeed="0.00" departDelay="0.00" arrival="61.00" arrivalLane="-40236220#0_1" arrivalPos="33.44" arrivalSpeed="13.68" duration="19.00" routeLength="209.85" waitingTime="0.00" waitingCount="0" stopTime="0.00" timeLoss="3.67" rerouteNo="0" devices="tripinfo_veh60" vType="passenger" speedFactor="1.03" vaporized=""/>
    <tripinfo id="veh2" depart="2.00" departLane="-1136289988_1" departPos="10.42" departSpeed="0.00" departDelay="0.60" arrival="83.00" arrivalLane="-43544138#5_1" arrivalPos="39.45" arrivalSpeed="14.13" duration="81.00" routeLength="873.29" waitingTime="0.00" waitingCount="0" stopTime="0.00" timeLoss="18.48" rerouteNo="0" devices="tripinfo_veh2" vType="passenger" speedFactor="1.08" vaporized=""/>
    <personinfo id="ped12" depart="60.00" type="DEFAULT_PEDTYPE" speedFactor="1.05" duration="26.00" waitingTime="0.00" timeLoss="3.25" traveltime="26.00">
        <walk depart="60.00" departPos="0.00" arrival="86.00" arrivalPos="18.75" duration="26.00" routeLength="33.15" timeLoss="3.25" maxSpeed="1.46"/>
    </personinfo>
    <tripinfo id="veh10" depart="7.00" departLane="-1136289991_1" departPos="14.75" departSpeed="0.00" departDelay="0.00" arrival="94.00" arrivalLane="-43544001#7_1" arrivalPos="45.62" arrivalSpeed="13.29" duration="87.00" routeLength="965.44" waitingTime="0.00" waitingCount="0" stopTime="0.00" timeLoss="15.72" rerouteNo="0" devices="tripinfo_veh10" vType="passenger" speedFactor="1.04" vaporized=""/>
    <tripinfo id="veh113" depart="80.00" departLane="33909936#0_1" departPos="4.14" departSpeed="0.00" departDelay="0.90" arrival="106.00" arrivalLane="354259928_1" arrivalPos="68.18" arrivalSpeed="15.18" duration="26.00" routeLength="204.45" waitingTime="0.00" waitingCount="0" stopTime="0.00" timeLoss="10.51" rerouteNo="0" devices="tripinfo_veh113" vType="passenger" speedFactor="1.11" vaporized=""/>
    <tripinfo id="veh7" depart="5.00" departLane="647998060#0_1" departPos="28.67" departSpeed="0.00" departDelay="0.10" arrival="108.00" arrivalLane="-43544624#0_1" arrivalPos="295.18" arrivalSpeed="14.77" duration="103.00" routeLength="1259.35" waitingTime="0.00" waitingCount="0" stopTime="0.00" timeLoss="18.90" rerouteNo="0" devices="tripinfo_veh7" vType="passenger" speedFactor="1.12" vaporized=""/>
    <tripinfo id="veh46" depart="33.00" departLane="-48736613#2_1" departPos="143.23" departSpeed="0.00" departDelay="0.80" arrival="109.00" arrivalLane="1136301812#1_1" arrivalPos="9.56" arrivalSpeed="9.73" duration="76.00" routeLength="743.45" waitingTime="0.00" waitingCount="0" stopTime="0.00" timeLoss="13.69" rerouteNo="0" devices="tripinfo_veh46" vType="motorcycle" speedFactor="0.90" vaporized=""/>
    <tripinfo id="veh98" depart="69.00" departLane="40330575#2_1" departPos="17.09" departSpeed="0.00" departDelay="0.40" arrival="113.00" arrivalLane="-1250915720#6_1" arrivalPos="63.36" arrivalSpeed="4.74" duration="44.00" routeLength="325.24" waitingTime="0.00" waitingCount="0" stopTime="0.00" timeLoss="12.57" rerouteNo="0" devices="tripinfo_veh98" vType="passenger" speedFactor="1.03" vaporized=""/>
    <tripinfo id="veh21" depart="15.00" departLane="43544184#0_1" departPos="19.43" departSpeed="0.00" departDelay="0.30" arrival="114.00" arrivalLane="1015948619_0" arrivalPos="20.77" arrivalSpeed="4.86" duration="99.00" routeLength="946.62" waitingTime="0.00" waitingCount="0" stopTime="0.00" timeLoss="13.60" rerouteNo="0" devices="tripinfo_veh21" vType="passenger" speedFactor="0.89" vaporized=""/>
    <personinfo id="ped8" depart="40.00" type="DEFAULT_PEDTYPE" speedFactor="0.87" duration="80.00" waitingTime="0.00" timeLoss="8.13" traveltime="80.00">
        <walk depart="40.00" departPos="0.00" arrival="120.00" arrivalPos="26.32" duration="80.00" routeLength="87.10" timeLoss="8.13" maxSpeed="1.21"/>
    </personinfo>
    <personinfo id="ped1" depart="5.00" type="DEFAULT_PEDTYPE" speedFactor="0.83" duration="118.00" waitingTime="0.00" timeLoss="12.18" traveltime="118.00">
        <walk depart="5.00" departPos="0.00" arrival="123.00" arrivalPos="22.35" duration="118.00" routeLength="122.13" timeLoss="12.18" maxSpeed="1.15"/>
    </personinfo>
    <tripinfo id="veh1" depart="1.00" departLane="353939585#1_2" departPos="13.85" departSpeed="0.00" departDelay="0.30" arrival="135.00" arrivalLane="-43546793_1" arrivalPos="192.09" arrivalSpeed="13.90" duration="134.00" routeLength="1594.06" waitingTime="0.00" waitingCount="0" stopTime="0.00" timeLoss="24.24" rerouteNo="0" devices="tripinfo_veh1" vType="passenger" speedFactor="1.08" vaporized=""/>
    <tripinfo id="veh118" depart="83.00" departLane="250295383#5_1" departPos="34.82" departSpeed="0.00" departDelay="0.40" arrival="146.00" arrivalLane="647755347#0_1" arrivalPos="70.01" arrivalSpeed="11.28" duration="63.00" routeLength="534.47" waitingTime="0.00" waitingCount="0" stopTime="0.00" timeLoss="14.17" rerouteNo="0" devices="tripinfo_veh118" vType="passenger" speedFactor="0.89" vaporized=""/>
    <tripinfo id="veh12" depart="9.00" departLane="-353939570#2_1" departPos="2.66" departSpeed="0.00" departDelay="0.60" arrival="151.00" arrivalLane="383582854#1_0" arrivalPos="56.91" arrivalSpeed="5.10" duration="142.00" routeLength="1521.31" waitingTime="0.00" waitingCount="0" stopTime="0.00" timeLoss="18.73" rerouteNo="0" devices="tripinfo_veh12" vType="emergency" speedFactor="1.00" vaporized=""/>
    <tripinfo id="veh40" depart="28.00" departLane="40236259_1" departPos="71.89" departSpeed="0.00" departDelay="0.00" arrival="153.00" arrivalLane="-40330571#1_1" arrivalPos="2.27" arrivalSpeed="11.64" duration="125.00" routeLength="1170.44" waitingTime="1.00" waitingCount="1" stopTime="0.00" timeLoss="23.11" rerouteNo="0" devices="tripinfo_veh40" vType="passenger" speedFactor="0.88" vaporized=""/>
    <tripinfo id="veh49" depart="35.00" departLane="353939570#9_2" departPos="16.45" departSpeed="0.00" departDelay="0.70" arrival="153.00" arrivalLane="859732803#0_0" arrivalPos="20.07" arrivalSpeed="4.64" duration="118.00" routeLength="729.22" waitingTime="39.00" waitingCount="1" stopTime="0.00" timeLoss="58.63" rerouteNo="0" devices="tripinfo_veh49" vType="passenger" speedFactor="1.00" vaporized=""/>
    <personinfo id="ped27" depart="135.00" type="DEFAULT_PEDTYPE" speedFactor="0.94" duration="22.00" waitingTime="0.00" timeLoss="2.02" traveltime="22.00">
        <walk depart="135.00" departPos="0.00" arrival="157.00" arrivalPos="15.66" duration="22.00" routeLength="26.06" timeLoss="2.02" maxSpeed="1.30"/>
    </personinfo>
    <tripinfo id="veh5" depart="4.00" departLane="383582511#0_0" departPos="70.89" departSpeed="0.00" departDelay="0.50" arrival="158.00" arrivalLane="-383582503_0" arrivalPos="105.76" arrivalSpeed="5.75" duration="154.00" routeLength="1583.02" waitingTime="0.00" waitingCount="0" stopTime="0.00" timeLoss="18.04" rerouteNo="0" devices="tripinfo_veh5" vType="delivery" speedFactor="1.05" vaporized=""/>
    <tripinfo id="veh99" depart="70.00" departLane="48778495#0_1" departPos="58.46" departSpeed="0.00" departDelay="0.70" arrival="161.00" arrivalLane="-945793490#0_1" arrivalPos="55.23" arrivalSpeed="5.10" duration="91.00" routeLength="609.05" waitingTime="0.00" waitingCount="0" stopTime="0.00" timeLoss="16.82" rerouteNo="0" devices="tripinfo_veh99" vType="passenger" speedFactor="1.02" vaporized=""/>
    <tripinfo id="veh147" depart="103.00" departLane="-40236153#0_1" departPos="17.53" departSpeed="0.00" departDelay="0.10" arrival="163.00" arrivalLane="43547296#1_1" arrivalPos="14.14" arrivalSpeed="12.19" duration="60.00" routeLength="645.82" waitingTime="0.00" waitingCount="0" stopTime="0.00" timeLoss="12.97" rerouteNo="0" devices="tripinfo_veh147" vType="motorcycle" speedFactor="1.08" vaporized=""/>
    <tripinfo id="veh47" depart="33.00" departLane="-43544179#8_1" departPos="14.33" departSpeed="0.00" departDelay="0.10" arrival="168.00" arrivalLane="-222609004#1_1" arrivalPos="58.62" arrivalSpeed="12.48" duration="135.00" routeLength="1458.17" waitingTime="0.00" waitingCount="0" stopTime="0.00" timeLoss="21.85" rerouteNo="0" devices="tripinfo_veh47" vType="delivery" speedFactor="0.98" vaporized=""/>
    <tripinfo id="veh27" depart="21.00" departLane="43544184#1_1" departPos="0.09" departSpeed="0.00" departDelay="2.10" arrival="170.00" arrivalLane="671386628#1_1" arrivalPos="211.01" arrivalSpeed="12.95" duration="149.00" routeLength="1713.84" waitingTime="2.00" waitingCount="1" stopTime="0.00" timeLoss="24.61" rerouteNo="0" devices="tripinfo_veh27" vType="motorcycle" speedFactor="1.02" vaporized=""/>
    <tripinfo id="veh145" depart="102.00" departLane="-492965073#2_2" departPos="69.33" departSpeed="0.00" departDelay="0.50" arrival="170.00" arrivalLane="-48778441#3_1" arrivalPos="104.09" arrivalSpeed="13.43" duration="68.00" routeLength="589.86" waitingTime="6.00" waitingCount="2" stopTime="0.00" timeLoss="21.83" rerouteNo="0" devices="tripinfo_veh145" vType="motorcycle" speedFactor="0.98" vaporized=""/>
    <tripinfo id="veh103" depart="73.00" departLane="43544184#0_1" departPos="26.56" departSpeed="0.00" departDelay="0.90" arrival="172.00" arrivalLane="-43573573#0_1" arrivalPos="20.40" arrivalSpeed="8.46" duration="99.00" routeLength="611.72" waitingTime="0.00" waitingCount="0" stopTime="0.00" timeLoss="58.56" rerouteNo="0" devices="tripinfo_veh103" vType="passenger" speedFactor="1.12" vaporized=""/>
    <tripinfo id="veh143" depart="101.00" departLane="-176279225#2_2" departPos="16.76" departSpeed="0.00" departDelay="0.90" arrival="180.00" arrivalLane="-E34_1" arrivalPos="70.92" arrivalSpeed="11.40" duration="79.00" routeLength="675.93" waitingTime="13.00" waitingCount="1" stopTime="0.00" timeLoss="28.25" rerouteNo="0" devices="tripinfo_veh143" vType="motorcycle" speedFactor="1.02" vaporized=""/>
    <tripinfo id="veh84" depart="59.00" departLane="40265793#1_1" departPos="16.04" departSpeed="0.00" departDelay="0.20" arrival="181.00" arrivalLane="-43544001#9_1" arrivalPos="174.06" arrivalSpeed="13.75" duration="122.00" routeLength="1433.66" waitingTime="0.00" waitingCount="0" stopTime="0.00" timeLoss="19.14" rerouteNo="0" devices="tripinfo_veh84" vType="passenger" speedFactor="1.03" vaporized=""/>
    <tripinfo id="veh128" depart="90.00" departLane="-43546688#2_1" departPos="32.99" departSpeed="0.00" departDelay="0.40" arrival="182.00" arrivalLane="40236228#0_1" arrivalPos="90.63" arrivalSpeed="11.64" duration="92.00" routeLength="869.31" waitingTime="0.00" waitingCount="0" stopTime="0.00" timeLoss="18.12" rerouteNo="0" devices="tripinfo_veh128" vType="passenger" speedFactor="0.91" vaporized=""/>
    <tripinfo id="veh13" depart="10.00" departLane="48736650#0_1" departPos="72.55" departSpeed="0.00" departDelay="0.90" arrival="184.00" arrivalLane="-1135856746#1_1" arrivalPos="137.93" arrivalSpeed="12.95" duration="174.00" routeLength="2216.80" waitingTime="0.00" waitingCount="0" stopTime="0.00" timeLoss="15.46" rerouteNo="0" devices="tripinfo_veh13" vType="passenger" speedFactor="1.02" vaporized=""/>
    <tripinfo id="veh112" depart="79.00" departLane="-143207979#1_1" departPos="26.24" departSpeed="0.00" departDelay="0.60" arrival="190.00" arrivalLane="996489799#1_0" arrivalPos="59.51" arrivalSpeed="4.98" duration="111.00" routeLength="1131.31" waitingTime="2.00" waitingCount="1" stopTime="0.00" timeLoss="22.87" rerouteNo="0" devices="tripinfo_veh112" vType="passenger" speedFactor="1.06" vaporized=""/>
    <tripinfo id="veh37" depart="26.00" departLane="-48736657#1_1" departPos="2.39" departSpeed="0.00" departDelay="0.10" arrival="191.00" arrivalLane="-256555440#1_1" arrivalPos="58.59" arrivalSpeed="13.36" duration="165.00" routeLength="1761.22" waitingTime="0.00" waitingCount="0" stopTime="0.00" timeLoss="32.42" rerouteNo="0" devices="tripinfo_veh37" vType="emergency" speedFactor="1.00" vaporized=""/>
    <tripinfo id="veh20" depart="14.00" departLane="-67736383_1" departPos="10.81" departSpeed="0.00" departDelay="0.00" arrival="192.00" arrivalLane="33909936#0_1" arrivalPos="22.47" arrivalSpeed="12.81" duration="178.00" routeLength="1831.77" waitingTime="19.00" waitingCount="3" stopTime="0.00" timeLoss="56.58" rerouteNo="0" devices="tripinfo_veh20" vType="passenger" speedFactor="1.13" vaporized=""/>
    <tripinfo id="veh34" depart="24.00" departLane="-647226815#1_1" departPos="37.26" departSpeed="0.00" departDelay="0.20" arrival="193.00" arrivalLane="984508802_0" arrivalPos="57.38" arrivalSpeed="5.00" duration="169.00" routeLength="1798.83" waitingTime="5.00" waitingCount="1" stopTime="0.00" timeLoss="33.07" rerouteNo="0" devices="tripinfo_veh34" vType="passenger" speedFactor="1.07" vaporized=""/>
    <personinfo id="ped21" depart="105.00" type="DEFAULT_PEDTYPE" speedFactor="0.97" duration="91.00" waitingTime="0.00" timeLoss="9.26" traveltime="91.00">
        <walk depart="105.00" departPos="0.00" arrival="196.00" arrivalPos="42.89" duration="91.00" routeLength="109.84" timeLoss="9.26" maxSpeed="1.34"/>
    </personinfo>
    <tripinfo id="veh24" depart="17.00" departLane="-48736620#6_2" departPos="2.53" departSpeed="0.00" departDelay="0.20" arrival="199.00" arrivalLane="-40334244#3_1" arrivalPos="176.10" arrivalSpeed="13.71" duration="182.00" routeLength="1452.24" waitingTime="36.00" waitingCount="5" stopTime="0.00" timeLoss="72.70" rerouteNo="0" devices="tripinfo_veh24" vType="passenger" speedFactor="0.99" vaporized=""/>
    <tripinfo id="veh122" depart="86.00" departLane="-996489799#1_0" departPos="31.73" departSpeed="0.00" departDelay="0.60" arrival="201.00" arrivalLane="-859732802#1_0" arrivalPos="135.75" arrivalSpeed="4.70" duration="115.00" routeLength="971.73" waitingTime="0.00" waitingCount="0" stopTime="0.00" timeLoss="17.16" rerouteNo="0" devices="tripinfo_veh122" vType="passenger" speedFactor="0.94" vaporized=""/>
    <tripinfo id="veh125" depart="88.00" departLane="43544138#4_1" departPos="24.21" departSpeed="0.00" departDelay="0.50" arrival="201.00" arrivalLane="43547256#1_1" arrivalPos="152.23" arrivalSpeed="16.31" duration="113.00" routeLength="1467.23" waitingTime="0.00" waitingCount="0" stopTime="0.00" timeLoss="21.84" rerouteNo="0" devices="tripinfo_veh125" vType="passenger" speedFactor="1.18" vaporized=""/>
    <tripinfo id="veh213" depart="150.00" departLane="383582514_1" departPos="194.64" departSpeed="0.00" departDelay="0.90" arrival="203.00" arrivalLane="43544179#4_1" arrivalPos="42.09" arrivalSpeed="10.18" duration="53.00" routeLength="518.66" waitingTime="0.00" waitingCount="0" stopTime="0.00" timeLoss="4.96" rerouteNo="0" devices="tripinfo_veh213" vType="passenger" speedFactor="0.80" vaporized=""/>
    <tripinfo id="veh68" depart="48.00" departLane="-43546648#2_1" departPos="11.73" departSpeed="0.00" departDelay="0.40" arrival="204.00" arrivalLane="-48778498#2_1" arrivalPos="98.02" arrivalSpeed="13.32" duration="156.00" routeLength="1669.97" waitingTime="0.00" waitingCount="0" stopTime="0.00" timeLoss="27.49" rerouteNo="0" devices="tripinfo_veh68" vType="passenger" speedFactor="0.98" vaporized=""/>
    <tripinfo id="veh121" depart="85.00" departLane="1205541342_1" departPos="15.48" departSpeed="0.00" departDelay="0.30" arrival="204.00" arrivalLane="-48736644_1" arrivalPos="142.05" arrivalSpeed="12.47" duration="119.00" routeLength="1333.49" waitingTime="0.00" waitingCount="0" stopTime="0.00" timeLoss="19.01" rerouteNo="0" devices="tripinfo_veh121" vType="motorcycle" speedFactor="1.04" vaporized=""/>
    <tripinfo id="veh235" depart="165.00" departLane="-1136283380_1" departPos="8.89" departSpeed="0.00" departDelay="0.50" arrival="204.00" arrivalLane="354252039#1_1" arrivalPos="19.16" arrivalSpeed="11.96" duration="39.00" routeLength="367.72" waitingTime="0.00" waitingCount="0" stopTime="0.00" timeLoss="8.24" rerouteNo="0" devices="tripinfo_veh235" vType="passenger" speedFactor="0.95" vaporized=""/>
    <tripinfo id="veh58" depart="41.00" departLane="-671642318#2_1" departPos="1.00" departSpeed="0.00" departDelay="0.40" arrival="208.00" arrivalLane="1378376381_1" arrivalPos="160.13" arrivalSpeed="13.74" duration="167.00" routeLength="2061.77" waitingTime="0.00" waitingCount="0" stopTime="0.00" timeLoss="21.88" rerouteNo="0" devices="tripinfo_veh58" vType="passenger" speedFactor="1.06" vaporized=""/>
    <tripinfo id="veh136" depart="96.00" departLane="40304754#3_1" departPos="11.24" departSpeed="0.00" departDelay="0.80" arrival="209.00" arrivalLane="-67712683_1" arrivalPos="77.22" arrivalSpeed="10.50" duration="113.00" routeLength="1115.41" waitingTime="0.00" waitingCount="0" stopTime="0.00" timeLoss="21.05" rerouteNo="0" devices="tripinfo_veh136" vType="motorcycle" speedFactor="0.91" vaporized=""/>
    <tripinfo id="veh178" depart="125.00" departLane="1250915720#6_1" departPos="12.52" departSpeed="0.00" departDelay="0.40" arrival="210.00" arrivalLane="E13_1" arrivalPos="35.68" arrivalSpeed="9.87" duration="85.00" routeLength="924.45" waitingTime="1.00" waitingCount="1" stopTime="0.00" timeLoss="14.62" rerouteNo="0" devices="tripinfo_veh178" vType="passenger" speedFactor="1.04" vaporized=""/>
    <tripinfo id="veh62" depart="44.00" departLane="-222605087#0_1" departPos="15.17" departSpeed="0.00" departDelay="0.60" arrival="212.00" arrivalLane="40299241#2_1" arrivalPos="144.50" arrivalSpeed="11.74" duration="168.00" routeLength="1464.74" waitingTime="27.00" waitingCount="1" stopTime="0.00" timeLoss="48.95" rerouteNo="0" devices="tripinfo_veh62" vType="passenger" speedFactor="0.92" vaporized=""/>
    <tripinfo id="veh76" depart="54.00" departLane="48736642_1" departPos="73.17" departSpeed="0.00" departDelay="0.80" arrival="212.00" arrivalLane="143207982#3_1" arrivalPos="25.25" arrivalSpeed="15.55" duration="158.00" routeLength="1263.84" waitingTime="50.00" waitingCount="2" stopTime="0.00" timeLoss="75.04" rerouteNo="0" devices="tripinfo_veh76" vType="passenger" speedFactor="1.14" vaporized=""/>
    <tripinfo id="veh170" depart="119.00" departLane="-43544001#8_1" departPos="42.64" departSpeed="0.00" departDelay="0.00" arrival="214.00" arrivalLane="-48778525#1_1" arrivalPos="14.99" arrivalSpeed="9.73" duration="95.00" routeLength="953.80" waitingTime="0.00" waitingCount="0" stopTime="0.00" timeLoss="22.02" rerouteNo="0" devices="tripinfo_veh170" vType="passenger" speedFactor="1.03" vaporized=""/>
    <tripinfo id="veh78" depart="55.00" departLane="-648182739#2_1" departPos="153.27" departSpeed="0.00" departDelay="0.40" arrival="218.00" arrivalLane="E13_1" arrivalPos="35.68" arrivalSpeed="13.61" duration="163.00" routeLength="1906.36" waitingTime="0.00" waitingCount="0" stopTime="0.00" timeLoss="21.46" rerouteNo="0" devices="tripinfo_veh78" vType="emergency" speedFactor="1.00" vaporized=""/>
    <personinfo id="ped9" depart="45.00" type="DEFAULT_PEDTYPE" speedFactor="1.02" duration="174.00" waitingTime="0.00" timeLoss="18.18" traveltime="174.00">
        <walk depart="45.00" departPos="0.00" arrival="219.00" arrivalPos="74.42" duration="174.00" routeLength="221.78" timeLoss="18.18" maxSpeed="1.42"/>
    </personinfo>
    <tripinfo id="veh52" depart="37.00" departLane="48778443#0_1" departPos="2.12" departSpeed="0.00" departDelay="0.60" arrival="219.00" arrivalLane="-33913538#6_1" arrivalPos="41.80" arrivalSpeed="12.67" duration="182.00" routeLength="1664.44" waitingTime="24.00" waitingCount="1" stopTime="0.00" timeLoss="51.07" rerouteNo="0" devices="tripinfo_veh52" vType="delivery" speedFactor="0.99" vaporized=""/>
    <tripinfo id="veh172" depart="121.00" departLane="48778481#8_2" departPos="2.44" departSpeed="0.00" departDelay="0.60" arrival="219.00" arrivalLane="492965073#7_1" arrivalPos="34.78" arrivalSpeed="13.66" duration="98.00" routeLength="791.25" waitingTime="14.00" waitingCount="2" stopTime="0.00" timeLoss="39.26" rerouteNo="0" devices="tripinfo_veh172" vType="passenger" speedFactor="1.07" vaporized=""/>
    <tripinfo id="veh221" depart="155.00" departLane="-43544197#1_1" departPos="30.07" departSpeed="0.00" departDelay="0.30" arrival="223.00" arrivalLane="-647998060#0_1" arrivalPos="61.50" arrivalSpeed="12.56" duration="68.00" routeLength="625.43" waitingTime="0.00" waitingCount="0" stopTime="0.00" timeLoss="18.94" rerouteNo="0" devices="tripinfo_veh221" vType="passenger" speedFactor="1.00" vaporized=""/>
    <tripinfo id="veh38" depart="27.00" departLane="48778503#0_1" departPos="16.61" departSpeed="0.00" departDelay="0.40" arrival="224.00" arrivalLane="E41_1" arrivalPos="211.17" arrivalSpeed="14.16" duration="197.00" routeLength="2390.57" waitingTime="1.00" waitingCount="1" stopTime="0.00" timeLoss="34.44" rerouteNo="0" devices="tripinfo_veh38" vType="passenger" speedFactor="1.09" vaporized=""/>
    <personinfo id="ped6" depart="30.00" type="DEFAULT_PEDTYPE" speedFactor="0.96" duration="195.00" waitingTime="0.00" timeLoss="18.69" traveltime="195.00">
        <walk depart="30.00" departPos="0.00" arrival="225.00" arrivalPos="11.85" duration="195.00" routeLength="236.13" timeLoss="18.69" maxSpeed="1.34"/>
    </personinfo>
    <tripinfo id="veh105" depart="74.00" departLane="-578560104#4_1" departPos="0.52" departSpeed="0.00" departDelay="0.50" arrival="226.00" arrivalLane="-945793485#1_1" arrivalPos="18.53" arrivalSpeed="12.57" duration="152.00" routeLength="1198.52" waitingTime="22.00" waitingCount="1" stopTime="0.00" timeLoss="54.95" rerouteNo="0" devices="tripinfo_veh105" vType="passenger" speedFactor="1.03" vaporized=""/>
    <tripinfo id="veh173" depart="122.00" departLane="1136301812#0_1" departPos="18.38" departSpeed="0.00" departDelay="0.90" arrival="226.00" arrivalLane="250295383#5_1" arrivalPos="51.09" arrivalSpeed="12.82" duration="104.00" routeLength="711.57" waitingTime="31.00" waitingCount="1" stopTime="0.00" timeLoss="49.77" rerouteNo="0" devices="tripinfo_veh173" vType="emergency" speedFactor="1.00" vaporized=""/>
    <tripinfo id="veh18" depart="13.00" departLane="-994066252#0_0" departPos="12.28" departSpeed="0.00" departDelay="0.40" arrival="227.00" arrivalLane="48778500#2_1" arrivalPos="217.31" arrivalSpeed="11.25" duration="214.00" routeLength="2302.65" waitingTime="0.00" waitingCount="0" stopTime="0.00" timeLoss="19.29" rerouteNo="0" devices="tripinfo_veh18" vType="passenger" speedFactor="0.87" vaporized=""/>
    <tripinfo id="veh230" depart="161.00" departLane="-48736621#1_1" departPos="19.24" departSpeed="0.00" departDelay="0.00" arrival="229.00" arrivalLane="48736621#1_1" arrivalPos="24.45" arrivalSpeed="7.32" duration="68.00" routeLength="628.07" waitingTime="0.00" waitingCount="0" stopTime="0.00" timeLoss="16.42" rerouteNo="0" devices="tripinfo_veh230" vType="delivery" speedFactor="0.93" vaporized=""/>
    <tripinfo id="veh29" depart="21.00" departLane="-1054663943_1" departPos="15.81" departSpeed="0.00" departDelay="0.70" arrival="231.00" arrivalLane="-40330575#1_1" arrivalPos="3.62" arrivalSpeed="14.87" duration="210.00" routeLength="2246.97" waitingTime="31.00" waitingCount="3" stopTime="0.00" timeLoss="59.38" rerouteNo="0" devices="tripinfo_veh29" vType="passenger" speedFactor="1.10" vaporized=""/>
    <tripinfo id="veh193" depart="136.00" departLane="-40330575#2_1" departPos="24.09" departSpeed="0.00" departDelay="0.90" arrival="231.00" arrivalLane="647347140#2_1" arrivalPos="24.44" arrivalSpeed="15.31" duration="95.00" routeLength="747.93" waitingTime="27.00" waitingCount="1" stopTime="0.00" timeLoss="44.51" rerouteNo="0" devices="tripinfo_veh193" vType="passenger" speedFactor="1.11" vaporized=""/>
    <tripinfo id="veh107" depart="75.00" departLane="-48778492_1" departPos="12.21" departSpeed="0.00" departDelay="0.10" arrival="233.00" arrivalLane="-222609002#2_1" arrivalPos="15.40" arrivalSpeed="9.30" duration="158.00" routeLength="1608.20" waitingTime="0.00" waitingCount="0" stopTime="0.00" timeLoss="29.34" rerouteNo="0" devices="tripinfo_veh107" vType="passenger" speedFactor="1.04" vaporized=""/>
    <tripinfo id="veh85" depart="60.00" departLane="48797767#1_1" departPos="11.66" departSpeed="0.00" departDelay="0.50" arrival="234.00" arrivalLane="984508805_0" arrivalPos="34.81" arrivalSpeed="5.38" duration="174.00" routeLength="1763.80" waitingTime="3.00" waitingCount="1" stopTime="0.00" timeLoss="33.65" rerouteNo="0" devices="tripinfo_veh85" vType="passenger" speedFactor="0.98" vaporized=""/>
    <tripinfo id="veh139" depart="100.00" departLane="-43546688#1_1" departPos="8.09" departSpeed="0.00" departDelay="2.70" arrival="236.00" arrivalLane="1135856746#0_1" arrivalPos="10.90" arrivalSpeed="8.25" duration="136.00" routeLength="1208.98" waitingTime="11.00" waitingCount="1" stopTime="0.00" timeLoss="31.89" rerouteNo="0" devices="tripinfo_veh139" vType="passenger" speedFactor="0.87" vaporized=""/>
    <tripinfo id="veh104" depart="73.00" departLane="40305706#0_1" departPos="17.04" departSpeed="0.00" departDelay="0.20" arrival="237.00" arrivalLane="647226815#1_1" arrivalPos="42.65" arrivalSpeed="14.24" duration="164.00" routeLength="1979.60" waitingTime="0.00" waitingCount="0" stopTime="0.00" timeLoss="29.90" rerouteNo="0" devices="tripinfo_veh104" vType="motorcycle" speedFactor="1.10" vaporized=""/>
    <tripinfo id="veh19" depart="14.00" departLane="143207979#6_1" departPos="127.65" departSpeed="0.00" departDelay="0.70" arrival="238.00" arrivalLane="1250915720#2_1" arrivalPos="2.90" arrivalSpeed="5.14" duration="224.00" routeLength="2120.82" waitingTime="27.00" waitingCount="1" stopTime="0.00" timeLoss="54.47" rerouteNo="0" devices="tripinfo_veh19" vType="passenger" speedFactor="1.03" vaporized=""/>
    <tripinfo id="veh101" depart="71.00" departLane="-48736666#2_1" departPos="24.28" departSpeed="0.00" departDelay="0.30" arrival="241.00" arrivalLane="48778473#1_1" arrivalPos="30.96" arrivalSpeed="14.00" duration="170.00" routeLength="1887.52" waitingTime="0.00" waitingCount="0" stopTime="0.00" timeLoss="34.17" rerouteNo="0" devices="tripinfo_veh101" vType="passenger" speedFactor="1.03" vaporized=""/>
    <tripinfo id="veh59" depart="42.00" departLane="1136117604_1" departPos="10.80" departSpeed="0.00" departDelay="0.70" arrival="242.00" arrivalLane="647998060#1_1" arrivalPos="57.23" arrivalSpeed="14.72" duration="200.00" routeLength="2504.85" waitingTime="0.00" waitingCount="0" stopTime="0.00" timeLoss="34.19" rerouteNo="0" devices="tripinfo_veh59" vType="passenger" speedFactor="1.12" vaporized=""/>
    <tripinfo id="veh197" depart="138.00" departLane="48797766#0_1" departPos="13.25" departSpeed="0.00" departDelay="0.10" arrival="242.00" arrivalLane="1136301813_1" arrivalPos="18.07" arrivalSpeed="10.31" duration="104.00" routeLength="745.19" waitingTime="15.00" waitingCount="2" stopTime="0.00" timeLoss="44.74" rerouteNo="0" devices="tripinfo_veh197" vType="delivery" speedFactor="0.99" vaporized=""/>
    <tripinfo id="veh77" depart="54.00" departLane="-48736620#3_1" departPos="14.14" departSpeed="0.00" departDelay="0.10" arrival="244.00" arrivalLane="-1135772296#0_0" arrivalPos="22.09" arrivalSpeed="5.71" duration="190.00" routeLength="1606.84" waitingTime="21.00" waitingCount="3" stopTime="0.00" timeLoss="75.90" rerouteNo="0" devices="tripinfo_veh77" vType="passenger" speedFactor="1.10" vaporized=""/>
    <tripinfo id="veh39" depart="28.00" departLane="48736650#2_1" departPos="10.75" departSpeed="0.00" departDelay="0.70" arrival="246.00" arrivalLane="-43546785_1" arrivalPos="161.51" arrivalSpeed="12.96" duration="218.00" routeLength="1887.99" waitingTime="51.00" waitingCount="1" stopTime="0.00" timeLoss="71.75" rerouteNo="0" devices="tripinfo_veh39" vType="passenger" speedFactor="0.95" vaporized=""/>
    <tripinfo id="veh94" depart="66.00" departLane="1135856746#0_1" departPos="1.90" departSpeed="0.00" departDelay="0.20" arrival="249.00" arrivalLane="-40269009#1_1" arrivalPos="27.05" arrivalSpeed="14.96" duration="183.00" routeLength="1673.21" waitingTime="27.00" waitingCount="1" stopTime="0.00" timeLoss="55.79" rerouteNo="0" devices="tripinfo_veh94" vType="passenger" speedFactor="1.13" vaporized=""/>