<?xml version="1.0" encoding="UTF-8"?>

<!-- generated on 2025-06-15 22:03:55 by Eclipse SUMO sumo Version 1.22.0
<sumoConfiguration xmlns:xsi="http://www.w3.org/2001/XMLSchema-instance" xsi:noNamespaceSchemaLocation="http://sumo.dlr.de/xsd/sumoConfiguration.xsd">

    <input>
        <net-file value="E:/licenta/oras-mediu/2025-06-05-11-45-23\osm.net.xml"/>
        <route-files value="E:/licenta/oras-mediu/2025-06-05-11-45-23\full.rou.xml,E:/licenta/oras-mediu/2025-06-05-11-45-23\ ped.rou.xml,E:/licenta/oras-mediu/2025-06-05-11-45-23\ truck.rou.xml"/>
        <additional-files value="E:/licenta/oras-mediu/2025-06-05-11-45-23\osm.poly.xml,E:/licenta/oras-mediu/2025-06-05-11-45-23\ vtypes.xml"/>
    </input>

    <output>
        <summary-output value="E:/licenta/oras-mediu/2025-06-05-11-45-23\summary.xml"/>
        <tripinfo-output value="evaluation_run_outputs\baseline_outputs\tripinfo_baseline_ep11.xml"/>
    </output>

    <processing>
        <ignore-route-errors value="true"/>
        <tls.actuated.jam-threshold value="30"/>
    </processing>

    <routing>
        <device.rerouting.adaptation-steps value="18"/>
        <device.rerouting.adaptation-interval value="10"/>
    </routing>

    <report>
        <verbose value="true"/>
        <duration-log.statistics value="true"/>
        <no-step-log value="true"/>
    </report>

    <gui_only>
        <gui-settings-file value="E:/licenta/oras-mediu/2025-06-05-11-45-23\osm.view.xml"/>
    </gui_only>

</sumoConfiguration>
-->

<tripinfos xmlns:xsi="http://www.w3.org/2001/XMLSchema-instance" xsi:noNamespaceSchemaLocation="http://sumo.dlr.de/xsd/tripinfo_file.xsd">
    <tripinfo id="veh95" depart="45.00" departLane="1116111951_0" departPos="34.42" departSpeed="0.00" departDelay="0.35" arrival="54.00" arrivalLane="-649025399_0" arrivalPos="31.36" arrivalSpeed="12.03" duration="9.00" routeLength="52.32" waitingTime="0.00" waitingCount="0" stopTime="0.00" timeLoss="2.38" rerouteNo="0" devices="tripinfo_veh95" vType="motorcycle" speedFactor="0.98" vaporized=""/>
    <tripinfo id="veh12" depart="6.00" departLane="48736618_1" departPos="31.18" departSpeed="0.00" departDelay="0.36" arrival="55.00" arrivalLane="-48736610#3_1" arrivalPos="39.72" arrivalSpeed="13.25" duration="49.00" routeLength="433.86" waitingTime="5.00" waitingCount="1" stopTime="0.00" timeLoss="16.27" rerouteNo="0" devices="tripinfo_veh12" vType="emergency" speedFactor="1.00" vaporized=""/>
    <tripinfo id="veh31" depart="15.00" departLane="48778498#1_1" departPos="15.19" departSpeed="0.00" departDelay="0.43" arrival="60.00" arrivalLane="222609002#1_1" arrivalPos="24.71" arrivalSpeed="13.29" duration="45.00" routeLength="308.73" waitingTime="0.00" waitingCount="0" stopTime="0.00" timeLoss="9.87" rerouteNo="0" devices="tripinfo_veh31" vType="passenger" speedFactor="1.04" vaporized=""/>
    <tripinfo id="veh23" depart="11.00" departLane="43547017#2_1" departPos="54.54" departSpeed="0.00" departDelay="0.19" arrival="63.00" arrivalLane="48778431#5_1" arrivalPos="316.25" arrivalSpeed="13.18" duration="52.00" routeLength="554.24" waitingTime="0.00" waitingCount="0" stopTime="0.00" timeLoss="10.01" rerouteNo="0" devices="tripinfo_veh23" vType="passenger" speedFactor="0.99" vaporized=""/>
    <tripinfo id="veh0" depart="0.00" departLane="-48736640#1_1" departPos="59.62" departSpeed="0.00" departDelay="0.00" arrival="68.00" arrivalLane="-1135855912_1" arrivalPos="95.20" arrivalSpeed="11.14" duration="68.00" routeLength="683.44" waitingTime="0.00" waitingCount="0" stopTime="0.00" timeLoss="13.43" rerouteNo="0" devices="tripinfo_veh0" vType="motorcycle" speedFactor="0.98" vaporized=""/>
    <tripinfo id="veh22" depart="11.00" departLane="48798094#1_0" departPos="134.79" departSpeed="0.00" departDelay="0.66" arrival="74.00" arrivalLane="995052417_0" arrivalPos="89.90" arrivalSpeed="15.17" duration="63.00" routeLength="824.06" waitingTime="0.00" waitingCount="0" stopTime="0.00" timeLoss="8.41" rerouteNo="0" devices="tripinfo_veh22" vType="passenger" speedFactor="1.12" vaporized=""/>
    <tripinfo id="veh78" depart="37.00" departLane="-43547017#5_1" departPos="4.57" departSpeed="0.00" departDelay="0.34" arrival="74.00" arrivalLane="43544001#15_1" arrivalPos="24.26" arrivalSpeed="14.37" duration="37.00" routeLength="432.61" waitingTime="0.00" waitingCount="0" stopTime="0.00" timeLoss="6.93" rerouteNo="0" devices="tripinfo_veh78" vType="passenger" speedFactor="1.06" vaporized=""/>
    <personinfo id="ped8" depart="40.00" type="DEFAULT_PEDTYPE" speedFactor="0.96" duration="37.00" waitingTime="0.00" timeLoss="6.62" traveltime="37.00">
        <walk depart="40.00" departPos="0.00" arrival="77.00" arrivalPos="13.46" duration="37.00" routeLength="40.36" timeLoss="6.62" maxSpeed="1.33"/>
    </personinfo>
    <tripinfo id="veh11" depart="6.00" departLane="-43546105#0_1" departPos="64.07" departSpeed="0.00" departDelay="0.83" arrival="80.00" arrivalLane="40236203#1_1" arrivalPos="32.69" arrivalSpeed="12.68" duration="74.00" routeLength="795.42" waitingTime="0.00" waitingCount="0" stopTime="0.00" timeLoss="12.55" rerouteNo="0" devices="tripinfo_veh11" vType="delivery" speedFactor="0.97" vaporized=""/>
    <tripinfo id="veh16" depart="8.00" departLane="-48778472_1" departPos="19.65" departSpeed="0.00" departDelay="0.48" arrival="81.00" arrivalLane="40269009#0_1" arrivalPos="22.67" arrivalSpeed="12.61" duration="73.00" routeLength="739.72" waitingTime="0.00" waitingCount="0" stopTime="0.00" timeLoss="16.49" rerouteNo="0" devices="tripinfo_veh16" vType="passenger" speedFactor="1.01" vaporized=""/>
    <tripinfo id="veh88" depart="42.00" departLane="-48778512_1" departPos="33.86" departSpeed="0.00" departDelay="0.64" arrival="82.00" arrivalLane="1136289992_1" arrivalPos="17.60" arrivalSpeed="9.10" duration="40.00" routeLength="325.97" waitingTime="0.00" waitingCount="0" stopTime="0.00" timeLoss="10.41" rerouteNo="0" devices="tripinfo_veh88" vType="passenger" speedFactor="1.10" vaporized=""/>
    <tripinfo id="veh45" depart="22.00" departLane="-48797773_1" departPos="23.12" departSpeed="0.00" departDelay="0.85" arrival="95.00" arrivalLane="48736641_1" arrivalPos="16.88" arrivalSpeed="9.24" duration="73.00" routeLength="600.37" waitingTime="0.00" waitingCount="0" stopTime="0.00" timeLoss="18.37" rerouteNo="0" devices="tripinfo_veh45" vType="passenger" speedFactor="1.00" vaporized=""/>
    <tripinfo id="veh38" depart="18.00" departLane="-48736666#2_1" departPos="19.76" departSpeed="0.00" departDelay="0.14" arrival="106.00" arrivalLane="143207982#2_1" arrivalPos="8.52" arrivalSpeed="15.08" duration="88.00" routeLength="1085.86" waitingTime="0.00" waitingCount="0" stopTime="0.00" timeLoss="18.12" rerouteNo="0" devices="tripinfo_veh38" vType="passenger" speedFactor="1.17" vaporized=""/>
    <tripinfo id="veh75" depart="36.00" departLane="48778498#1_1" departPos="2.60" departSpeed="0.00" departDelay="0.75" arrival="108.00" arrivalLane="-354259933#0_1" arrivalPos="10.70" arrivalSpeed="15.13" duration="72.00" routeLength="724.54" waitingTime="0.00" waitingCount="0" stopTime="0.00" timeLoss="19.02" rerouteNo="0" devices="tripinfo_veh75" vType="passenger" speedFactor="1.10" vaporized=""/>
    <tripinfo id="veh108" depart="51.00" departLane="-40330575#2_1" departPos="30.82" departSpeed="0.00" departDelay="0.24" arrival="114.00" arrivalLane="33909936#4_1" arrivalPos="15.05" arrivalSpeed="14.03" duration="63.00" routeLength="742.07" waitingTime="0.00" waitingCount="0" stopTime="0.00" timeLoss="8.78" rerouteNo="0" devices="tripinfo_veh108" vType="passenger" speedFactor="1.01" vaporized=""/>
    <tripinfo id="veh143" depart="68.00" departLane="-40299739#3_1" departPos="85.57" departSpeed="0.00" departDelay="0.79" arrival="116.00" arrivalLane="40299264#1_1" arrivalPos="139.82" arrivalSpeed="13.54" duration="48.00" routeLength="563.28" waitingTime="0.00" waitingCount="0" stopTime="0.00" timeLoss="7.32" rerouteNo="0" devices="tripinfo_veh143" vType="passenger" speedFactor="1.03" vaporized=""/>
    <tripinfo id="veh67" depart="32.00" departLane="-48778446#0_1" departPos="6.51" departSpeed="0.00" departDelay="0.51" arrival="119.00" arrivalLane="43546449#2_1" arrivalPos="49.88" arrivalSpeed="13.01" duration="87.00" routeLength="820.04" waitingTime="8.00" waitingCount="1" stopTime="0.00" timeLoss="22.10" rerouteNo="0" devices="tripinfo_veh67" vType="motorcycle" speedFactor="0.94" vaporized=""/>
    <tripinfo id="veh68" depart="32.00" departLane="48778475#1_1" departPos="2.54" departSpeed="0.00" departDelay="0.04" arrival="126.00" arrivalLane="945793485#0_1" arrivalPos="25.00" arrivalSpeed="11.35" duration="94.00" routeLength="820.51" waitingTime="0.00" waitingCount="0" stopTime="0.00" timeLoss="17.35" rerouteNo="0" devices="tripinfo_veh68" vType="passenger" speedFactor="0.83" vaporized=""/>
    <tripinfo id="veh136" depart="64.00" departLane="40330557#4_1" departPos="3.87" departSpeed="0.00" departDelay="0.08" arrival="136.00" arrivalLane="-945794110_1" arrivalPos="52.39" arrivalSpeed="8.40" duration="72.00" routeLength="693.53" waitingTime="0.00" waitingCount="0" stopTime="0.00" timeLoss="18.22" rerouteNo="0" devices="tripinfo_veh136" vType="passenger" speedFactor="1.06" vaporized=""/>
    <tripinfo id="veh207" depart="98.00" departLane="-48736612#2_1" departPos="8.60" departSpeed="0.00" departDelay="0.71" arrival="143.00" arrivalLane="-48736610#0_1" arrivalPos="66.60" arrivalSpeed="14.86" duration="45.00" routeLength="454.11" waitingTime="0.00" waitingCount="0" stopTime="0.00" timeLoss="13.26" rerouteNo="0" devices="tripinfo_veh207" vType="passenger" speedFactor="1.13" vaporized=""/>
    <tripinfo id="veh34" depart="16.00" departLane="-48778475#0_1" departPos="4.14" departSpeed="0.00" departDelay="0.02" arrival="144.00" arrivalLane="-43546460#6_1" arrivalPos="16.33" arrivalSpeed="14.97" duration="128.00" routeLength="1704.20" waitingTime="0.00" waitingCount="0" stopTime="0.00" timeLoss="13.83" rerouteNo="0" devices="tripinfo_veh34" vType="passenger" speedFactor="1.09" vaporized=""/>
    <tripinfo id="veh151" depart="71.00" departLane="250295381_1" departPos="19.78" departSpeed="0.00" departDelay="0.03" arrival="150.00" arrivalLane="43573573#3_1" arrivalPos="71.51" arrivalSpeed="13.73" duration="79.00" routeLength="915.52" waitingTime="0.00" waitingCount="0" stopTime="0.00" timeLoss="14.78" rerouteNo="0" devices="tripinfo_veh151" vType="passenger" speedFactor="1.07" vaporized=""/>
    <tripinfo id="veh273" depart="129.00" departLane="-48736612#5_1" departPos="4.47" departSpeed="0.00" departDelay="0.69" arrival="150.00" arrivalLane="-48736612#1_1" arrivalPos="56.12" arrivalSpeed="13.31" duration="21.00" routeLength="223.98" waitingTime="0.00" waitingCount="0" stopTime="0.00" timeLoss="3.81" rerouteNo="0" devices="tripinfo_veh273" vType="passenger" speedFactor="0.98" vaporized=""/>
    <personinfo id="ped9" depart="45.00" type="DEFAULT_PEDTYPE" speedFactor="1.07" duration="111.00" waitingTime="0.00" timeLoss="12.21" traveltime="111.00">
        <walk depart="45.00" departPos="0.00" arrival="156.00" arrivalPos="27.13" duration="111.00" routeLength="146.44" timeLoss="12.21" maxSpeed="1.48"/>
    </personinfo>
    <tripinfo id="veh10" depart="5.00" departLane="E23_2" departPos="65.20" departSpeed="0.00" departDelay="0.30" arrival="156.00" arrivalLane="-258551297#1_0" arrivalPos="131.29" arrivalSpeed="5.25" duration="151.00" routeLength="1284.14" waitingTime="9.00" waitingCount="1" stopTime="0.00" timeLoss="44.02" rerouteNo="0" devices="tripinfo_veh10" vType="passenger" speedFactor="1.04" vaporized=""/>
    <tripinfo id="veh80" depart="38.00" departLane="354250407#1_2" departPos="0.81" departSpeed="0.00" departDelay="0.40" arrival="158.00" arrivalLane="48778489#0_2" arrivalPos="265.37" arrivalSpeed="10.47" duration="120.00" routeLength="1553.26" waitingTime="0.00" waitingCount="0" stopTime="0.00" timeLoss="15.00" rerouteNo="0" devices="tripinfo_veh80" vType="passenger" speedFactor="1.08" vaporized=""/>
    <tripinfo id="veh227" depart="107.00" departLane="E17_1" departPos="3.58" departSpeed="0.00" departDelay="0.31" arrival="161.00" arrivalLane="-48778501_1" arrivalPos="136.18" arrivalSpeed="13.88" duration="54.00" routeLength="564.88" waitingTime="0.00" waitingCount="0" stopTime="0.00" timeLoss="11.52" rerouteNo="0" devices="tripinfo_veh227" vType="passenger" speedFactor="1.03" vaporized=""/>
    <tripinfo id="veh25" depart="12.00" departLane="33913538#9_1" departPos="7.91" departSpeed="0.00" departDelay="0.25" arrival="162.00" arrivalLane="-1250915722#2_1" arrivalPos="3.43" arrivalSpeed="4.77" duration="150.00" routeLength="1232.50" waitingTime="11.00" waitingCount="1" stopTime="0.00" timeLoss="37.74" rerouteNo="0" devices="tripinfo_veh25" vType="motorcycle" speedFactor="1.02" vaporized=""/>
    <tripinfo id="veh27" depart="13.00" departLane="-1136289988_1" departPos="10.53" departSpeed="0.00" departDelay="0.31" arrival="165.00" arrivalLane="-353939570#4_2" arrivalPos="276.20" arrivalSpeed="14.60" duration="152.00" routeLength="1989.67" waitingTime="0.00" waitingCount="0" stopTime="0.00" timeLoss="19.72" rerouteNo="0" devices="tripinfo_veh27" vType="passenger" speedFactor="1.10" vaporized=""/>
    <tripinfo id="veh232" depart="110.00" departLane="1232511776#1_1" departPos="77.84" departSpeed="0.00" departDelay="0.96" arrival="165.00" arrivalLane="48778527_1" arrivalPos="56.14" arrivalSpeed="14.76" duration="55.00" routeLength="596.25" waitingTime="0.00" waitingCount="0" stopTime="0.00" timeLoss="14.06" rerouteNo="0" devices="tripinfo_veh232" vType="passenger" speedFactor="1.14" vaporized=""/>
    <tripinfo id="veh40" depart="19.00" departLane="945794111_1" departPos="20.68" departSpeed="0.00" departDelay="0.20" arrival="168.00" arrivalLane="1250915722#4_1" arrivalPos="56.95" arrivalSpeed="3.40" duration="149.00" routeLength="1085.51" waitingTime="1.00" waitingCount="1" stopTime="0.00" timeLoss="34.04" rerouteNo="0" devices="tripinfo_veh40" vType="motorcycle" speedFactor="1.00" vaporized=""/>
    <tripinfo id="veh32" depart="16.00" departLane="-43544001#11_1" departPos="45.89" departSpeed="0.00" departDelay="0.96" arrival="172.00" arrivalLane="48778504_1" arrivalPos="191.60" arrivalSpeed="13.02" duration="156.00" routeLength="1563.34" waitingTime="4.00" waitingCount="3" stopTime="0.00" timeLoss="37.89" rerouteNo="0" devices="tripinfo_veh32" vType="emergency" speedFactor="1.00" vaporized=""/>
    <tripinfo id="veh121" depart="57.00" departLane="43547017#1_1" departPos="24.64" departSpeed="0.00" departDelay="0.13" arrival="173.00" arrivalLane="-43573547#5_1" arrivalPos="56.54" arrivalSpeed="14.62" duration="116.00" routeLength="1451.72" waitingTime="0.00" waitingCount="0" stopTime="0.00" timeLoss="16.44" rerouteNo="0" devices="tripinfo_veh121" vType="passenger" speedFactor="1.07" vaporized=""/>
    <tripinfo id="veh142" depart="67.00" departLane="-945793490#4_1" departPos="41.83" departSpeed="0.00" departDelay="0.26" arrival="173.00" arrivalLane="48778496_1" arrivalPos="81.85" arrivalSpeed="6.79" duration="106.00" routeLength="570.17" waitingTime="4.00" waitingCount="1" stopTime="0.00" timeLoss="33.87" rerouteNo="0" devices="tripinfo_veh142" vType="motorcycle" speedFactor="0.97" vaporized=""/>
    <tripinfo id="veh139" depart="66.00" departLane="48778498#2_1" departPos="55.91" departSpeed="0.00" departDelay="0.67" arrival="176.00" arrivalLane="859732802#1_0" arrivalPos="140.93" arrivalSpeed="6.04" duration="110.00" routeLength="599.76" waitingTime="0.00" waitingCount="0" stopTime="0.00" timeLoss="10.60" rerouteNo="0" devices="tripinfo_veh139" vType="bicycle" speedFactor="1.09" vaporized=""/>
    <tripinfo id="veh137" depart="65.00" departLane="33913538#7_1" departPos="139.44" departSpeed="0.00" departDelay="0.61" arrival="178.00" arrivalLane="1136301813_1" arrivalPos="18.07" arrivalSpeed="11.60" duration="113.00" routeLength="1201.51" waitingTime="3.00" waitingCount="1" stopTime="0.00" timeLoss="20.14" rerouteNo="0" devices="tripinfo_veh137" vType="passenger" speedFactor="0.96" vaporized=""/>
    <tripinfo id="veh49" depart="24.00" departLane="43546460#10_1" departPos="7.86" departSpeed="0.00" departDelay="0.97" arrival="180.00" arrivalLane="40305706#2_1" arrivalPos="52.63" arrivalSpeed="12.75" duration="156.00" routeLength="1637.16" waitingTime="10.00" waitingCount="2" stopTime="0.00" timeLoss="32.96" rerouteNo="0" devices="tripinfo_veh49" vType="delivery" speedFactor="0.99" vaporized=""/>
    <tripinfo id="veh63" depart="30.00" departLane="43546648#0_1" departPos="98.72" departSpeed="0.00" departDelay="0.39" arrival="180.00" arrivalLane="992542691_0" arrivalPos="24.23" arrivalSpeed="4.72" duration="150.00" routeLength="1612.82" waitingTime="0.00" waitingCount="0" stopTime="0.00" timeLoss="22.90" rerouteNo="0" devices="tripinfo_veh63" vType="passenger" speedFactor="0.98" vaporized=""/>
    <tripinfo id="veh197" depart="94.00" departLane="-250295383#1_1" departPos="51.64" departSpeed="0.00" departDelay="1.41" arrival="180.00" arrivalLane="-984521612#1_0" arrivalPos="29.21" arrivalSpeed="4.72" duration="86.00" routeLength="638.42" waitingTime="7.00" waitingCount="1" stopTime="0.00" timeLoss="28.67" rerouteNo="0" devices="tripinfo_veh197" vType="motorcycle" speedFactor="1.04" vaporized=""/>
    <tripinfo id="veh103" depart="49.00" departLane="-48736666#1_1" departPos="0.06" departSpeed="0.00" departDelay="0.59" arrival="186.00" arrivalLane="-647755347#1_1" arrivalPos="36.40" arrivalSpeed="12.99" duration="137.00" routeLength="1277.85" waitingTime="29.00" waitingCount="1" stopTime="0.00" timeLoss="51.40" rerouteNo="0" devices="tripinfo_veh103" vType="motorcycle" speedFactor="1.10" vaporized=""/>
    <tripinfo id="veh189" depart="89.00" departLane="-48778500#0_1" departPos="9.44" departSpeed="0.00" departDelay="0.17" arrival="186.00" arrivalLane="-1250915720#3_1" arrivalPos="2.51" arrivalSpeed="5.42" duration="97.00" routeLength="737.62" waitingTime="2.00" waitingCount="1" stopTime="0.00" timeLoss="27.67" rerouteNo="0" devices="tripinfo_veh189" vType="passenger" speedFactor="1.04" vaporized=""/>
    <tripinfo id="veh115" depart="55.00" departLane="43546789#0_1" departPos="7.64" departSpeed="0.00" departDelay="0.95" arrival="187.00" arrivalLane="-33909936#2_1" arrivalPos="60.97" arrivalSpeed="13.91" duration="132.00" routeLength="1543.04" waitingTime="0.00" waitingCount="0" stopTime="0.00" timeLoss="37.29" rerouteNo="0" devices="tripinfo_veh115" vType="passenger" speedFactor="1.21" vaporized=""/>
    <tripinfo id="veh131" depart="62.00" departLane="222605087#1_1" departPos="10.12" departSpeed="0.00" departDelay="0.43" arrival="187.00" arrivalLane="354259928_1" arrivalPos="68.18" arrivalSpeed="9.86" duration="125.00" routeLength="764.14" waitingTime="10.00" waitingCount="3" stopTime="0.00" timeLoss="36.15" rerouteNo="0" devices="tripinfo_veh131" vType="motorcycle" speedFactor="0.91" vaporized=""/>
    <tripinfo id="veh181" depart="86.00" departLane="1135772296#0_0" departPos="4.43" departSpeed="0.00" departDelay="0.93" arrival="188.00" arrivalLane="48797766#1_1" arrivalPos="31.54" arrivalSpeed="12.56" duration="102.00" routeLength="971.49" waitingTime="1.00" waitingCount="1" stopTime="0.00" timeLoss="31.00" rerouteNo="0" devices="tripinfo_veh181" vType="passenger" speedFactor="1.11" vaporized=""/>
    <tripinfo id="veh20" depart="10.00" departLane="48778480#0_2" departPos="9.23" departSpeed="0.00" departDelay="0.60" arrival="190.00" arrivalLane="-40330575#1_1" arrivalPos="3.62" arrivalSpeed="11.71" duration="180.00" routeLength="1840.46" waitingTime="3.00" waitingCount="1" stopTime="0.00" timeLoss="27.27" rerouteNo="0" devices="tripinfo_veh20" vType="passenger" speedFactor="0.89" vaporized=""/>
    <tripinfo id="veh156" depart="74.00" departLane="43546343#2_1" departPos="26.68" departSpeed="0.00" departDelay="0.68" arrival="192.00" arrivalLane="647610982#2_1" arrivalPos="11.90" arrivalSpeed="12.23" duration="118.00" routeLength="1118.21" waitingTime="9.00" waitingCount="2" stopTime="0.00" timeLoss="30.12" rerouteNo="0" devices="tripinfo_veh156" vType="delivery" speedFactor="0.94" vaporized=""/>
    <tripinfo id="veh170" depart="80.00" departLane="1136017144_0" departPos="5.75" departSpeed="0.00" departDelay="0.10" arrival="194.00" arrivalLane="250295383#1_1" arrivalPos="60.77" arrivalSpeed="15.71" duration="114.00" routeLength="1201.99" waitingTime="0.00" waitingCount="0" stopTime="0.00" timeLoss="14.80" rerouteNo="0" devices="tripinfo_veh170" vType="passenger" speedFactor="1.17" vaporized=""/>
    <tripinfo id="veh19" depart="9.00" departLane="92198452#0_1" departPos="17.94" departSpeed="0.00" departDelay="0.07" arrival="195.00" arrivalLane="222605089#2_1" arrivalPos="24.42" arrivalSpeed="15.03" duration="186.00" routeLength="1972.42" waitingTime="40.00" waitingCount="1" stopTime="0.00" timeLoss="59.17" rerouteNo="0" devices="tripinfo_veh19" vType="passenger" speedFactor="1.13" vaporized=""/>
    <tripinfo id="veh271" depart="128.00" departLane="43544001#2_1" departPos="27.32" departSpeed="0.00" departDelay="0.63" arrival="196.00" arrivalLane="-383582512#1_0" arrivalPos="18.95" arrivalSpeed="5.45" duration="68.00" routeLength="811.52" waitingTime="0.00" waitingCount="0" stopTime="0.00" timeLoss="6.47" rerouteNo="0" devices="tripinfo_veh271" vType="passenger" speedFactor="1.00" vaporized=""/>
    <tripinfo id="veh179" depart="85.00" departLane="1135855898_0" departPos="27.89" departSpeed="0.00" departDelay="0.87" arrival="201.00" arrivalLane="43573547#5_1" arrivalPos="56.54" arrivalSpeed="14.16" duration="116.00" routeLength="1374.38" waitingTime="0.00" waitingCount="0" stopTime="0.00" timeLoss="17.63" rerouteNo="0" devices="tripinfo_veh179" vType="passenger" speedFactor="1.06" vaporized=""/>
    <tripinfo id="veh97" depart="46.00" departLane="-48778441#3_1" departPos="93.65" departSpeed="0.00" departDelay="0.41" arrival="204.00" arrivalLane="48736665_1" arrivalPos="14.66" arrivalSpeed="9.77" duration="158.00" routeLength="1241.47" waitingTime="42.00" waitingCount="1" stopTime="0.00" timeLoss="67.63" rerouteNo="0" devices="tripinfo_veh97" vType="passenger" speedFactor="1.03" vaporized=""/>
    <tripinfo id="veh84" depart="40.00" departLane="383582499#4_1" departPos="85.97" departSpeed="0.00" departDelay="0.52" arrival="206.00" arrivalLane="-492965073#5_2" arrivalPos="154.22" arrivalSpeed="11.59" duration="166.00" routeLength="2185.56" waitingTime="0.00" waitingCount="0" stopTime="0.00" timeLoss="38.15" rerouteNo="0" devices="tripinfo_veh84" vType="passenger" speedFactor="1.25" vaporized=""/>
    <tripinfo id="veh155" depart="73.00" departLane="-40330575#2_1" departPos="55.88" departSpeed="0.00" departDelay="0.15" arrival="206.00" arrivalLane="-578560104#3_1" arrivalPos="122.64" arrivalSpeed="15.91" duration="133.00" routeLength="808.81" waitingTime="55.00" waitingCount="2" stopTime="0.00" timeLoss="79.87" rerouteNo="0" devices="tripinfo_veh155" vType="passenger" speedFactor="1.15" vaporized=""/>
    <tripinfo id="veh43" depart="21.00" departLane="383582854#0_0" departPos="12.12" departSpeed="0.00" departDelay="0.79" arrival="207.00" arrivalLane="-492965073#2_2" arrivalPos="175.38" arrivalSpeed="9.56" duration="186.00" routeLength="1741.65" waitingTime="7.00" waitingCount="3" stopTime="0.00" timeLoss="45.38" rerouteNo="0" devices="tripinfo_veh43" vType="delivery" speedFactor="0.98" vaporized=""/>
    <tripinfo id="veh135" depart="64.00" departLane="859728205_0" departPos="33.97" departSpeed="0.00" departDelay="0.55" arrival="207.00" arrivalLane="-48797765#1_1" arrivalPos="28.98" arrivalSpeed="12.34" duration="143.00" routeLength="1127.89" waitingTime="24.00" waitingCount="1" stopTime="0.00" timeLoss="43.24" rerouteNo="0" devices="tripinfo_veh135" vType="passenger" speedFactor="0.90" vaporized=""/>
    <tripinfo id="veh120" depart="57.00" departLane="-48736638#0_1" departPos="43.99" departSpeed="0.00" departDelay="0.60" arrival="208.00" arrivalLane="-48736657#0_1" arrivalPos="65.02" arrivalSpeed="11.96" duration="151.00" routeLength="1059.24" waitingTime="36.00" waitingCount="2" stopTime="0.00" timeLoss="65.29" rerouteNo="0" devices="tripinfo_veh120" vType="passenger" speedFactor="0.94" vaporized=""/>
    <tripinfo id="veh87" depart="41.00" departLane="48778525#0_1" departPos="2.42" departSpeed="0.00" departDelay="0.11" arrival="209.00" arrivalLane="-222605089#1_1" arrivalPos="62.73" arrivalSpeed="13.19" duration="168.00" routeLength="1432.53" waitingTime="23.00" waitingCount="1" stopTime="0.00" timeLoss="59.38" rerouteNo="0" devices="tripinfo_veh87" vType="delivery" speedFactor="1.01" vaporized=""/>
    <tripinfo id="veh208" depart="98.00" departLane="43546519#2_1" departPos="3.73" departSpeed="0.00" departDelay="0.24" arrival="209.00" arrivalLane="-48797765#1_1" arrivalPos="28.98" arrivalSpeed="13.65" duration="111.00" routeLength="1041.71" waitingTime="8.00" waitingCount="1" stopTime="0.00" timeLoss="32.42" rerouteNo="0" devices="tripinfo_veh208" vType="passenger" speedFactor="1.00" vaporized=""/>
    <tripinfo id="veh259" depart="122.00" departLane="43547017#5_1" departPos="19.55" departSpeed="0.00" departDelay="0.27" arrival="211.00" arrivalLane="-43544138#4_1" arrivalPos="45.15" arrivalSpeed="11.72" duration="89.00" routeLength="820.33" waitingTime="0.00" waitingCount="0" stopTime="0.00" timeLoss="20.91" rerouteNo="0" devices="tripinfo_veh259" vType="passenger" speedFactor="0.94" vaporized=""/>
    <tripinfo id="veh128" depart="61.00" departLane="-43544001#0_1" departPos="28.81" departSpeed="0.00" departDelay="0.84" arrival="212.00" arrivalLane="-43546053#0_1" arrivalPos="315.83" arrivalSpeed="9.91" duration="151.00" routeLength="1418.14" waitingTime="0.00" waitingCount="0" stopTime="0.00" timeLoss="19.21" rerouteNo="0" devices="tripinfo_veh128" vType="passenger" speedFactor="0.80" vaporized=""/>
    <tripinfo id="veh275" depart="130.00" departLane="43546092_1" departPos="46.77" departSpeed="0.00" departDelay="0.75" arrival="212.00" arrivalLane="-43544138#2_1" arrivalPos="0.25" arrivalSpeed="10.98" duration="82.00" routeLength="708.88" waitingTime="0.00" waitingCount="0" stopTime="0.00" timeLoss="15.34" rerouteNo="0" devices="tripinfo_veh275" vType="passenger" speedFactor="0.82" vaporized=""/>
    <tripinfo id="veh13" depart="7.00" departLane="43547017#0_1" departPos="27.48" departSpeed="0.00" departDelay="0.89" arrival="213.00" arrivalLane="-43546460#1_1" arrivalPos="137.05" arrivalSpeed="13.71" duration="206.00" routeLength="2611.46" waitingTime="0.00" waitingCount="0" stopTime="0.00" timeLoss="19.84" rerouteNo="0" devices="tripinfo_veh13" vType="passenger" speedFactor="1.02" vaporized=""/>
    <tripinfo id="veh172" depart="81.00" departLane="40305706#0_1" departPos="12.76" departSpeed="0.00" departDelay="0.16" arrival="213.00" arrivalLane="43573573#2_1" arrivalPos="202.87" arrivalSpeed="12.11" duration="132.00" routeLength="1437.68" waitingTime="0.00" waitingCount="0" stopTime="0.00" timeLoss="21.13" rerouteNo="0" devices="tripinfo_veh172" vType="passenger" speedFactor="0.96" vaporized=""/>
    <tripinfo id="veh274" depart="129.00" departLane="-994066252#0_0" departPos="7.06" departSpeed="0.00" departDelay="0.22" arrival="213.00" arrivalLane="647610982#0_1" arrivalPos="197.95" arrivalSpeed="16.58" duration="84.00" routeLength="507.40" waitingTime="17.00" waitingCount="2" stopTime="0.00" timeLoss="52.07" rerouteNo="0" devices="tripinfo_veh274" vType="passenger" speedFactor="1.26" vaporized=""/>
    <tripinfo id="veh36" depart="17.00" departLane="40236203#2_1" departPos="6.22" departSpeed="0.00" departDelay="0.08" arrival="215.00" arrivalLane="-48778520_1" arrivalPos="53.92" arrivalSpeed="11.43" duration="198.00" routeLength="2065.18" waitingTime="0.00" waitingCount="0" stopTime="0.00" timeLoss="23.25" rerouteNo="0" devices="tripinfo_veh36" vType="passenger" speedFactor="0.88" vaporized=""/>
    <tripinfo id="veh122" depart="58.00" departLane="222608880#1_1" departPos="2.92" departSpeed="0.00" departDelay="0.66" arrival="215.00" arrivalLane="-48778503#0_1" arrivalPos="42.51" arrivalSpeed="12.40" duration="157.00" routeLength="1517.14" waitingTime="10.00" waitingCount="1" stopTime="0.00" timeLoss="34.11" rerouteNo="0" devices="tripinfo_veh122" vType="passenger" speedFactor="0.92" vaporized=""/>
    <tripinfo id="veh193" depart="91.00" departLane="-984505045_0" departPos="42.85" departSpeed="0.00" departDelay="0.29" arrival="215.00" arrivalLane="48778498#2_1" arrivalPos="98.03" arrivalSpeed="12.85" duration="124.00" routeLength="766.28" waitingTime="44.00" waitingCount="2" stopTime="0.00" timeLoss="63.66" rerouteNo="0" devices="tripinfo_veh193" vType="delivery" speedFactor="1.01" vaporized=""/>
    <tripinfo id="veh3" depart="2.00" departLane="40330583#0_0" departPos="4.01" departSpeed="0.00" departDelay="0.59" arrival="216.00" arrivalLane="-43544001#10_1" arrivalPos="37.96" arrivalSpeed="12.45" duration="214.00" routeLength="2346.89" waitingTime="20.00" waitingCount="1" stopTime="0.00" timeLoss="43.53" rerouteNo="0" devices="tripinfo_veh3" vType="passenger" speedFactor="0.94" vaporized=""/>
    <tripinfo id="veh373" depart="176.00" departLane="48736641_1" departPos="5.24" departSpeed="0.00" departDelay="0.69" arrival="216.00" arrivalLane="-492965073#6_1" arrivalPos="1.92" arrivalSpeed="13.32" duration="40.00" routeLength="303.13" waitingTime="0.00" waitingCount="0" stopTime="0.00" timeLoss="14.77" rerouteNo="0" devices="tripinfo_veh373" vType="passenger" speedFactor="0.99" vaporized=""/>
    <tripinfo id="veh8" depart="4.00" departLane="-353939570#4_1" departPos="128.75" departSpeed="0.00" departDelay="0.24" arrival="217.00" arrivalLane="40295499#1_1" arrivalPos="272.23" arrivalSpeed="11.91" duration="213.00" routeLength="2055.36" waitingTime="24.00" waitingCount="2" stopTime="0.00" timeLoss="47.45" rerouteNo="0" devices="tripinfo_veh8" vType="passenger" speedFactor="0.90" vaporized=""/>