<?xml version="1.0" encoding="UTF-8"?>

<!-- generated on 2025-06-15 22:36:27 by Eclipse SUMO sumo Version 1.22.0
<sumoConfiguration xmlns:xsi="http://www.w3.org/2001/XMLSchema-instance" xsi:noNamespaceSchemaLocation="http://sumo.dlr.de/xsd/sumoConfiguration.xsd">

    <input>
        <net-file value="E:/licenta/oras-mediu/2025-06-05-11-45-23\osm.net.xml"/>
        <route-files value="E:/licenta/oras-mediu/2025-06-05-11-45-23\full.rou.xml,E:/licenta/oras-mediu/2025-06-05-11-45-23\ ped.rou.xml,E:/licenta/oras-mediu/2025-06-05-11-45-23\ truck.rou.xml"/>
        <additional-files value="E:/licenta/oras-mediu/2025-06-05-11-45-23\osm.poly.xml,E:/licenta/oras-mediu/2025-06-05-11-45-23\ vtypes.xml"/>
    </input>

    <output>
        <summary-output value="E:/licenta/oras-mediu/2025-06-05-11-45-23\summary.xml"/>
        <tripinfo-output value="evaluation_run_outputs\baseline_outputs\tripinfo_baseline_ep20.xml"/>
    </output>

    <processing>
        <ignore-route-errors value="true"/>
        <tls.actuated.jam-threshold value="30"/>
    </processing>

    <routing>
        <device.rerouting.adaptation-steps value="18"/>
        <device.rerouting.adaptation-interval value="10"/>
    </routing>

    <report>
        <verbose value="true"/>
        <duration-log.statistics value="true"/>
        <no-step-log value="true"/>
    </report>

    <gui_only>
        <gui-settings-file value="E:/licenta/oras-mediu/2025-06-05-11-45-23\osm.view.xml"/>
    </gui_only>

</sumoConfiguration>
-->

<tripinfos xmlns:xsi="http://www.w3.org/2001/XMLSchema-instance" xsi:noNamespaceSchemaLocation="http://sumo.dlr.de/xsd/tripinfo_file.xsd">
    <personinfo id="ped5" depart="25.00" type="DEFAULT_PEDTYPE" speedFactor="1.11" duration="32.00" waitingTime="0.00" timeLoss="3.68" traveltime="32.00">
        <walk depart="25.00" departPos="0.00" arrival="57.00" arrivalPos="4.00" duration="32.00" routeLength="43.79" timeLoss="3.68" maxSpeed="1.55"/>
    </personinfo>
    <tripinfo id="veh23" depart="12.00" departLane="40345956#3_1" departPos="1.32" departSpeed="0.00" departDelay="0.04" arrival="62.00" arrivalLane="48778496_1" arrivalPos="81.85" arrivalSpeed="8.92" duration="50.00" routeLength="484.27" waitingTime="0.00" waitingCount="0" stopTime="0.00" timeLoss="12.15" rerouteNo="0" devices="tripinfo_veh23" vType="passenger" speedFactor="1.15" vaporized=""/>
    <tripinfo id="veh33" depart="18.00" departLane="1136301812#0_1" departPos="20.90" departSpeed="0.00" departDelay="0.84" arrival="84.00" arrivalLane="48778449#1_1" arrivalPos="70.68" arrivalSpeed="14.36" duration="66.00" routeLength="578.23" waitingTime="0.00" waitingCount="0" stopTime="0.00" timeLoss="20.09" rerouteNo="0" devices="tripinfo_veh33" vType="passenger" speedFactor="1.04" vaporized=""/>
    <tripinfo id="veh119" depart="62.00" departLane="1136279385_1" departPos="15.98" departSpeed="0.00" departDelay="0.12" arrival="93.00" arrivalLane="-40314583#7_1" arrivalPos="24.38" arrivalSpeed="11.53" duration="31.00" routeLength="229.76" waitingTime="0.00" waitingCount="0" stopTime="0.00" timeLoss="11.63" rerouteNo="0" devices="tripinfo_veh119" vType="passenger" speedFactor="1.21" vaporized=""/>
    <tripinfo id="veh21" depart="11.00" departLane="E9_2" departPos="5.46" departSpeed="0.00" departDelay="0.08" arrival="101.00" arrivalLane="-859728208#1_0" arrivalPos="0.20" arrivalSpeed="4.72" duration="90.00" routeLength="773.50" waitingTime="0.00" waitingCount="0" stopTime="0.00" timeLoss="11.74" rerouteNo="0" devices="tripinfo_veh21" vType="passenger" speedFactor="0.89" vaporized=""/>
    <tripinfo id="veh32" depart="17.00" departLane="40330575#0_1" departPos="5.70" departSpeed="0.00" departDelay="0.36" arrival="101.00" arrivalLane="222605087#4_1" arrivalPos="52.91" arrivalSpeed="5.63" duration="84.00" routeLength="656.73" waitingTime="0.00" waitingCount="0" stopTime="0.00" timeLoss="14.40" rerouteNo="0" devices="tripinfo_veh32" vType="passenger" speedFactor="1.07" vaporized=""/>
    <tripinfo id="veh7" depart="4.00" departLane="1136119743#0_1" departPos="16.47" departSpeed="0.00" departDelay="0.36" arrival="105.00" arrivalLane="222605084#6_0" arrivalPos="0.20" arrivalSpeed="5.38" duration="101.00" routeLength="683.99" waitingTime="3.00" waitingCount="2" stopTime="0.00" timeLoss="25.21" rerouteNo="0" devices="tripinfo_veh7" vType="passenger" speedFactor="1.12" vaporized=""/>
    <tripinfo id="veh8" depart="5.00" departLane="-40236153#0_1" departPos="18.04" departSpeed="0.00" departDelay="0.84" arrival="106.00" arrivalLane="-250295513_1" arrivalPos="43.99" arrivalSpeed="12.43" duration="101.00" routeLength="1042.57" waitingTime="0.00" waitingCount="0" stopTime="0.00" timeLoss="15.38" rerouteNo="0" devices="tripinfo_veh8" vType="passenger" speedFactor="0.90" vaporized=""/>
    <tripinfo id="veh116" depart="61.00" departLane="43546688#1_1" departPos="10.12" departSpeed="0.00" departDelay="0.68" arrival="106.00" arrivalLane="-40236203#3_1" arrivalPos="78.82" arrivalSpeed="14.55" duration="45.00" routeLength="452.19" waitingTime="0.00" waitingCount="0" stopTime="0.00" timeLoss="13.60" rerouteNo="0" devices="tripinfo_veh116" vType="passenger" speedFactor="1.11" vaporized=""/>
    <tripinfo id="veh43" depart="23.00" departLane="40236220#1_1" departPos="12.37" departSpeed="0.00" departDelay="0.64" arrival="111.00" arrivalLane="-43573478_1" arrivalPos="180.41" arrivalSpeed="11.98" duration="88.00" routeLength="773.58" waitingTime="1.00" waitingCount="1" stopTime="0.00" timeLoss="21.90" rerouteNo="0" devices="tripinfo_veh43" vType="motorcycle" speedFactor="0.90" vaporized=""/>
    <tripinfo id="veh12" depart="7.00" departLane="-40314876_1" departPos="23.98" departSpeed="0.00" departDelay="0.76" arrival="122.00" arrivalLane="-647677163_1" arrivalPos="79.04" arrivalSpeed="12.72" duration="115.00" routeLength="1216.87" waitingTime="0.00" waitingCount="0" stopTime="0.00" timeLoss="21.95" rerouteNo="0" devices="tripinfo_veh12" vType="emergency" speedFactor="1.00" vaporized=""/>
    <tripinfo id="veh2" depart="2.00" departLane="48736633_1" departPos="145.96" departSpeed="0.00" departDelay="0.96" arrival="124.00" arrivalLane="1017995181_1" arrivalPos="15.20" arrivalSpeed="9.29" duration="122.00" routeLength="1215.06" waitingTime="16.00" waitingCount="1" stopTime="0.00" timeLoss="37.28" rerouteNo="0" devices="tripinfo_veh2" vType="passenger" speedFactor="1.08" vaporized=""/>
    <tripinfo id="veh164" depart="86.00" departLane="-48778476_1" departPos="36.42" departSpeed="0.00" departDelay="0.72" arrival="131.00" arrivalLane="40305706#0_1" arrivalPos="32.26" arrivalSpeed="11.11" duration="45.00" routeLength="456.54" waitingTime="0.00" waitingCount="0" stopTime="0.00" timeLoss="10.91" rerouteNo="0" devices="tripinfo_veh164" vType="passenger" speedFactor="1.03" vaporized=""/>
    <tripinfo id="veh100" depart="52.00" departLane="-40330557#0_1" departPos="28.84" departSpeed="0.00" departDelay="0.00" arrival="133.00" arrivalLane="859734514#1_0" arrivalPos="56.51" arrivalSpeed="5.69" duration="81.00" routeLength="836.69" waitingTime="0.00" waitingCount="0" stopTime="0.00" timeLoss="9.58" rerouteNo="0" devices="tripinfo_veh100" vType="passenger" speedFactor="1.03" vaporized=""/>
    <tripinfo id="veh132" depart="69.00" departLane="-43544001#5_1" departPos="32.45" departSpeed="0.00" departDelay="0.36" arrival="135.00" arrivalLane="-43544197#5_1" arrivalPos="40.70" arrivalSpeed="10.44" duration="66.00" routeLength="605.96" waitingTime="0.00" waitingCount="0" stopTime="0.00" timeLoss="8.49" rerouteNo="0" devices="tripinfo_veh132" vType="passenger" speedFactor="0.80" vaporized=""/>
    <tripinfo id="veh195" depart="102.00" departLane="25379984#0_2" departPos="81.38" departSpeed="0.00" departDelay="0.60" arrival="139.00" arrivalLane="-258551281_1" arrivalPos="67.94" arrivalSpeed="13.16" duration="37.00" routeLength="230.46" waitingTime="9.00" waitingCount="1" stopTime="0.00" timeLoss="19.45" rerouteNo="0" devices="tripinfo_veh195" vType="emergency" speedFactor="1.00" vaporized=""/>
    <tripinfo id="veh81" depart="43.00" departLane="264868325_1" departPos="43.55" departSpeed="0.00" departDelay="0.88" arrival="140.00" arrivalLane="-43546088_1" arrivalPos="225.01" arrivalSpeed="13.57" duration="97.00" routeLength="1080.09" waitingTime="0.00" waitingCount="0" stopTime="0.00" timeLoss="19.43" rerouteNo="0" devices="tripinfo_veh81" vType="passenger" speedFactor="1.06" vaporized=""/>
    <tripinfo id="veh84" depart="44.00" departLane="-43573573#2_1" departPos="182.80" departSpeed="0.00" departDelay="0.32" arrival="141.00" arrivalLane="992542691_0" arrivalPos="24.23" arrivalSpeed="4.79" duration="97.00" routeLength="1092.47" waitingTime="0.00" waitingCount="0" stopTime="0.00" timeLoss="18.26" rerouteNo="0" devices="tripinfo_veh84" vType="passenger" speedFactor="1.08" vaporized=""/>
    <tripinfo id="veh113" depart="60.00" departLane="40236164_1" departPos="144.56" departSpeed="0.00" departDelay="1.24" arrival="142.00" arrivalLane="-48778454#1_1" arrivalPos="94.52" arrivalSpeed="13.75" duration="82.00" routeLength="753.30" waitingTime="0.00" waitingCount="0" stopTime="0.00" timeLoss="21.72" rerouteNo="0" devices="tripinfo_veh113" vType="emergency" speedFactor="1.00" vaporized=""/>
    <tripinfo id="veh44" depart="24.00" departLane="-43573547#0_1" departPos="41.80" departSpeed="0.00" departDelay="1.12" arrival="145.00" arrivalLane="43544184#1_1" arrivalPos="0.22" arrivalSpeed="13.05" duration="121.00" routeLength="1149.14" waitingTime="13.00" waitingCount="1" stopTime="0.00" timeLoss="33.54" rerouteNo="0" devices="tripinfo_veh44" vType="delivery" speedFactor="0.98" vaporized=""/>
    <tripinfo id="veh65" depart="34.00" departLane="40236203#3_1" departPos="18.79" departSpeed="0.00" departDelay="0.20" arrival="148.00" arrivalLane="-43546039#3_1" arrivalPos="47.87" arrivalSpeed="14.17" duration="114.00" routeLength="1344.88" waitingTime="0.00" waitingCount="0" stopTime="0.00" timeLoss="21.16" rerouteNo="0" devices="tripinfo_veh65" vType="passenger" speedFactor="1.08" vaporized=""/>
    <tripinfo id="veh98" depart="51.00" departLane="859728208#0_0" departPos="23.97" departSpeed="0.00" departDelay="0.04" arrival="148.00" arrivalLane="-1205541342_1" arrivalPos="22.37" arrivalSpeed="4.39" duration="97.00" routeLength="720.74" waitingTime="0.00" waitingCount="0" stopTime="0.00" timeLoss="19.55" rerouteNo="0" devices="tripinfo_veh98" vType="motorcycle" speedFactor="0.98" vaporized=""/>
    <tripinfo id="veh105" depart="55.00" departLane="48778480#5_1" departPos="82.85" departSpeed="0.00" departDelay="0.40" arrival="151.00" arrivalLane="48736640#0_1" arrivalPos="55.87" arrivalSpeed="15.06" duration="96.00" routeLength="929.15" waitingTime="8.00" waitingCount="1" stopTime="0.00" timeLoss="33.16" rerouteNo="0" devices="tripinfo_veh105" vType="passenger" speedFactor="1.12" vaporized=""/>
    <tripinfo id="veh183" depart="96.00" departLane="-48778524#1_1" departPos="16.99" departSpeed="0.00" departDelay="0.84" arrival="153.00" arrivalLane="-383582512#0_0" arrivalPos="35.67" arrivalSpeed="4.93" duration="57.00" routeLength="478.68" waitingTime="0.00" waitingCount="0" stopTime="0.00" timeLoss="9.06" rerouteNo="0" devices="tripinfo_veh183" vType="passenger" speedFactor="0.92" vaporized=""/>
    <tripinfo id="veh112" depart="59.00" departLane="43546935#2_1" departPos="40.26" departSpeed="0.00" departDelay="0.76" arrival="160.00" arrivalLane="-43546935#2_1" arrivalPos="44.28" arrivalSpeed="13.10" duration="101.00" routeLength="901.79" waitingTime="1.00" waitingCount="1" stopTime="0.00" timeLoss="32.57" rerouteNo="0" devices="tripinfo_veh112" vType="passenger" speedFactor="1.01" vaporized=""/>
    <tripinfo id="veh117" depart="61.00" departLane="-43546519#2_1" departPos="4.63" departSpeed="0.00" departDelay="0.16" arrival="160.00" arrivalLane="-48778505#2_1" arrivalPos="58.27" arrivalSpeed="13.22" duration="99.00" routeLength="1006.99" waitingTime="0.00" waitingCount="0" stopTime="0.00" timeLoss="23.44" rerouteNo="0" devices="tripinfo_veh117" vType="delivery" speedFactor="1.01" vaporized=""/>
    <tripinfo id="veh196" depart="102.00" departLane="-48778514#1_1" departPos="142.37" departSpeed="0.00" departDelay="0.08" arrival="162.00" arrivalLane="-264868325_1" arrivalPos="96.14" arrivalSpeed="15.32" duration="60.00" routeLength="639.74" waitingTime="0.00" waitingCount="0" stopTime="0.00" timeLoss="14.96" rerouteNo="0" devices="tripinfo_veh196" vType="passenger" speedFactor="1.10" vaporized=""/>
    <tripinfo id="veh10" depart="6.00" departLane="-48736656#2_1" departPos="53.63" departSpeed="0.00" departDelay="0.80" arrival="163.00" arrivalLane="-671606411_1" arrivalPos="183.61" arrivalSpeed="6.11" duration="157.00" routeLength="974.66" waitingTime="54.00" waitingCount="3" stopTime="0.00" timeLoss="84.37" rerouteNo="0" devices="tripinfo_veh10" vType="passenger" speedFactor="1.04" vaporized=""/>
    <tripinfo id="veh62" depart="33.00" departLane="-1136289992_1" departPos="1.72" departSpeed="0.00" departDelay="0.76" arrival="163.00" arrivalLane="-258551284#1_1" arrivalPos="135.26" arrivalSpeed="15.07" duration="130.00" routeLength="1561.72" waitingTime="0.00" waitingCount="0" stopTime="0.00" timeLoss="20.85" rerouteNo="0" devices="tripinfo_veh62" vType="passenger" speedFactor="1.09" vaporized=""/>
    <tripinfo id="veh131" depart="69.00" departLane="-1054663943_1" departPos="9.69" departSpeed="0.00" departDelay="0.88" arrival="163.00" arrivalLane="-48736613#4_1" arrivalPos="22.23" arrivalSpeed="11.21" duration="94.00" routeLength="495.14" waitingTime="36.00" waitingCount="2" stopTime="0.00" timeLoss="50.06" rerouteNo="0" devices="tripinfo_veh131" vType="passenger" speedFactor="0.88" vaporized=""/>
    <tripinfo id="veh40" depart="21.00" departLane="-43573547#0_1" departPos="45.00" departSpeed="0.00" departDelay="0.20" arrival="168.00" arrivalLane="1250915720#2_1" arrivalPos="2.90" arrivalSpeed="5.42" duration="147.00" routeLength="1302.59" waitingTime="16.00" waitingCount="1" stopTime="0.00" timeLoss="37.28" rerouteNo="0" devices="tripinfo_veh40" vType="passenger" speedFactor="1.05" vaporized=""/>
    <personinfo id="ped20" depart="100.00" type="DEFAULT_PEDTYPE" speedFactor="1.03" duration="74.00" waitingTime="0.00" timeLoss="8.13" traveltime="74.00">
        <walk depart="100.00" departPos="0.00" arrival="174.00" arrivalPos="6.55" duration="74.00" routeLength="94.10" timeLoss="8.13" maxSpeed="1.43"/>
    </personinfo>
    <tripinfo id="veh227" depart="119.00" departLane="43546935#2_1" departPos="18.66" departSpeed="0.00" departDelay="0.96" arrival="175.00" arrivalLane="1136289987_1" arrivalPos="68.55" arrivalSpeed="7.64" duration="56.00" routeLength="502.81" waitingTime="0.00" waitingCount="0" stopTime="0.00" timeLoss="11.49" rerouteNo="0" devices="tripinfo_veh227" vType="passenger" speedFactor="0.97" vaporized=""/>
    <tripinfo id="veh138" depart="72.00" departLane="-1276522491_0" departPos="80.69" departSpeed="0.00" departDelay="0.24" arrival="177.00" arrivalLane="48736603#1_1" arrivalPos="122.42" arrivalSpeed="11.07" duration="105.00" routeLength="1052.77" waitingTime="0.00" waitingCount="0" stopTime="0.00" timeLoss="11.71" rerouteNo="0" devices="tripinfo_veh138" vType="passenger" speedFactor="0.87" vaporized=""/>
    <tripinfo id="veh158" depart="83.00" departLane="647347140#1_1" departPos="8.18" departSpeed="0.00" departDelay="0.84" arrival="177.00" arrivalLane="258551321_1" arrivalPos="124.63" arrivalSpeed="15.10" duration="94.00" routeLength="1172.56" waitingTime="0.00" waitingCount="0" stopTime="0.00" timeLoss="18.23" rerouteNo="0" devices="tripinfo_veh158" vType="passenger" speedFactor="1.15" vaporized=""/>
    <tripinfo id="veh17" depart="9.00" departLane="-40236228#1_1" departPos="10.22" departSpeed="0.00" departDelay="0.16" arrival="178.00" arrivalLane="-250295382_1" arrivalPos="106.55" arrivalSpeed="13.66" duration="169.00" routeLength="1101.44" waitingTime="61.00" waitingCount="1" stopTime="0.00" timeLoss="86.86" rerouteNo="0" devices="tripinfo_veh17" vType="passenger" speedFactor="1.01" vaporized=""/>
    <tripinfo id="veh274" depart="143.00" departLane="-48778494#1_1" departPos="7.41" departSpeed="0.00" departDelay="0.52" arrival="178.00" arrivalLane="945794109_1" arrivalPos="21.82" arrivalSpeed="9.15" duration="35.00" routeLength="351.05" waitingTime="0.00" waitingCount="0" stopTime="0.00" timeLoss="10.87" rerouteNo="0" devices="tripinfo_veh274" vType="passenger" speedFactor="1.16" vaporized=""/>
    <tripinfo id="veh25" depart="13.00" departLane="43546460#6_1" departPos="13.26" departSpeed="0.00" departDelay="0.00" arrival="183.00" arrivalLane="48778512_1" arrivalPos="67.72" arrivalSpeed="7.44" duration="170.00" routeLength="1994.84" waitingTime="0.00" waitingCount="0" stopTime="0.00" timeLoss="16.94" rerouteNo="0" devices="tripinfo_veh25" vType="passenger" speedFactor="0.99" vaporized=""/>
    <tripinfo id="veh27" depart="15.00" departLane="-1054663943_1" departPos="7.91" departSpeed="0.00" departDelay="0.96" arrival="183.00" arrivalLane="48736655_1" arrivalPos="17.43" arrivalSpeed="11.47" duration="168.00" routeLength="1201.32" waitingTime="53.00" waitingCount="2" stopTime="0.00" timeLoss="78.40" rerouteNo="0" devices="tripinfo_veh27" vType="motorcycle" speedFactor="1.02" vaporized=""/>
    <tripinfo id="veh107" depart="56.00" departLane="-48778492_1" departPos="30.59" departSpeed="0.00" departDelay="0.36" arrival="183.00" arrivalLane="-43547296#0_1" arrivalPos="163.38" arrivalSpeed="13.05" duration="127.00" routeLength="1543.44" waitingTime="0.00" waitingCount="0" stopTime="0.00" timeLoss="22.47" rerouteNo="0" devices="tripinfo_veh107" vType="motorcycle" speedFactor="1.10" vaporized=""/>
    <tripinfo id="veh91" depart="48.00" departLane="-E24_2" departPos="44.88" departSpeed="0.00" departDelay="0.68" arrival="185.00" arrivalLane="48778443#0_1" arrivalPos="2.86" arrivalSpeed="6.00" duration="137.00" routeLength="1212.23" waitingTime="0.00" waitingCount="0" stopTime="0.00" timeLoss="29.99" rerouteNo="0" devices="tripinfo_veh91" vType="delivery" speedFactor="1.01" vaporized=""/>
    <tripinfo id="veh134" depart="70.00" departLane="40266909#0_1" departPos="55.48" departSpeed="0.00" departDelay="0.32" arrival="189.00" arrivalLane="-859732802#0_0" arrivalPos="5.60" arrivalSpeed="4.83" duration="119.00" routeLength="1057.26" waitingTime="13.00" waitingCount="1" stopTime="0.00" timeLoss="31.53" rerouteNo="0" devices="tripinfo_veh134" vType="passenger" speedFactor="0.97" vaporized=""/>
    <tripinfo id="veh110" depart="58.00" departLane="-383582854#2_0" departPos="26.02" departSpeed="0.00" departDelay="0.80" arrival="190.00" arrivalLane="-176279225#0_1" arrivalPos="70.91" arrivalSpeed="13.75" duration="132.00" routeLength="1104.33" waitingTime="33.00" waitingCount="1" stopTime="0.00" timeLoss="46.66" rerouteNo="0" devices="tripinfo_veh110" vType="passenger" speedFactor="1.04" vaporized=""/>
    <tripinfo id="veh181" depart="95.00" departLane="-E27_1" departPos="18.26" departSpeed="0.00" departDelay="0.88" arrival="190.00" arrivalLane="143207982#1_1" arrivalPos="37.78" arrivalSpeed="13.54" duration="95.00" routeLength="494.40" waitingTime="48.00" waitingCount="1" stopTime="0.00" timeLoss="58.47" rerouteNo="0" devices="tripinfo_veh181" vType="motorcycle" speedFactor="1.00" vaporized=""/>
    <tripinfo id="veh76" depart="40.00" departLane="40329447_1" departPos="10.26" departSpeed="0.00" departDelay="0.48" arrival="193.00" arrivalLane="-996984133_1" arrivalPos="75.36" arrivalSpeed="7.36" duration="153.00" routeLength="1459.45" waitingTime="0.00" waitingCount="0" stopTime="0.00" timeLoss="26.57" rerouteNo="0" devices="tripinfo_veh76" vType="passenger" speedFactor="0.91" vaporized=""/>
    <tripinfo id="veh89" depart="47.00" departLane="43573573#4_1" departPos="19.24" departSpeed="0.00" departDelay="0.72" arrival="194.00" arrivalLane="222605084#9_1" arrivalPos="2.21" arrivalSpeed="6.89" duration="147.00" routeLength="1770.09" waitingTime="1.00" waitingCount="1" stopTime="0.00" timeLoss="26.15" rerouteNo="0" devices="tripinfo_veh89" vType="passenger" speedFactor="1.25" vaporized=""/>
    <tripinfo id="veh160" depart="84.00" departLane="353939570#5_1" departPos="46.90" departSpeed="0.00" departDelay="0.80" arrival="194.00" arrivalLane="E41_1" arrivalPos="211.17" arrivalSpeed="12.76" duration="110.00" routeLength="1107.83" waitingTime="2.00" waitingCount="1" stopTime="0.00" timeLoss="15.85" rerouteNo="0" devices="tripinfo_veh160" vType="delivery" speedFactor="0.94" vaporized=""/>
    <tripinfo id="veh75" depart="39.00" departLane="945793491#1_1" departPos="39.11" departSpeed="0.00" departDelay="0.00" arrival="195.00" arrivalLane="48778508#1_1" arrivalPos="98.38" arrivalSpeed="11.45" duration="156.00" routeLength="1176.72" waitingTime="0.00" waitingCount="0" stopTime="0.00" timeLoss="20.06" rerouteNo="0" devices="tripinfo_veh75" vType="passenger" speedFactor="0.86" vaporized=""/>
    <tripinfo id="veh53" depart="28.00" departLane="-43544001#9_1" departPos="170.75" departSpeed="0.00" departDelay="0.44" arrival="196.00" arrivalLane="996489799#0_0" arrivalPos="0.20" arrivalSpeed="5.08" duration="168.00" routeLength="1516.65" waitingTime="25.00" waitingCount="3" stopTime="0.00" timeLoss="48.94" rerouteNo="0" devices="tripinfo_veh53" vType="passenger" speedFactor="0.95" vaporized=""/>
    <tripinfo id="veh0" depart="0.00" departLane="-250295384_1" departPos="110.65" departSpeed="0.00" departDelay="0.00" arrival="199.00" arrivalLane="48778511_1" arrivalPos="75.86" arrivalSpeed="11.84" duration="199.00" routeLength="2115.58" waitingTime="1.00" waitingCount="1" stopTime="0.00" timeLoss="37.30" rerouteNo="0" devices="tripinfo_veh0" vType="motorcycle" speedFactor="0.98" vaporized=""/>
    <tripinfo id="veh50" depart="26.00" departLane="-1135856746#0_1" departPos="4.70" departSpeed="0.00" departDelay="0.00" arrival="199.00" arrivalLane="48778473#0_1" arrivalPos="21.31" arrivalSpeed="10.40" duration="173.00" routeLength="1153.85" waitingTime="59.00" waitingCount="3" stopTime="0.00" timeLoss="83.41" rerouteNo="0" devices="tripinfo_veh50" vType="passenger" speedFactor="0.96" vaporized=""/>
    <tripinfo id="veh78" depart="41.00" departLane="383582503_0" departPos="31.04" departSpeed="0.00" departDelay="0.44" arrival="199.00" arrivalLane="-383582514_1" arrivalPos="205.28" arrivalSpeed="8.72" duration="158.00" routeLength="1640.86" waitingTime="2.00" waitingCount="1" stopTime="0.00" timeLoss="31.09" rerouteNo="0" devices="tripinfo_veh78" vType="passenger" speedFactor="1.10" vaporized=""/>
    <tripinfo id="veh39" depart="21.00" departLane="-43546460#6_1" departPos="0.39" departSpeed="0.00" departDelay="0.72" arrival="204.00" arrivalLane="-43546343#1_1" arrivalPos="46.32" arrivalSpeed="15.09" duration="183.00" routeLength="2357.40" waitingTime="0.00" waitingCount="0" stopTime="0.00" timeLoss="33.81" rerouteNo="0" devices="tripinfo_veh39" vType="passenger" speedFactor="1.17" vaporized=""/>
    <tripinfo id="veh123" depart="64.00" departLane="-40236203#3_1" departPos="31.78" departSpeed="0.00" departDelay="0.04" arrival="204.00" arrivalLane="43544624#0_1" arrivalPos="295.29" arrivalSpeed="12.96" duration="140.00" routeLength="1623.60" waitingTime="0.00" waitingCount="0" stopTime="0.00" timeLoss="13.05" rerouteNo="0" devices="tripinfo_veh123" vType="passenger" speedFactor="0.94" vaporized=""/>
    <tripinfo id="veh67" depart="35.00" departLane="-994065252_0" departPos="5.53" departSpeed="0.00" departDelay="0.16" arrival="205.00" arrivalLane="40265777#1_1" arrivalPos="65.39" arrivalSpeed="12.82" duration="170.00" routeLength="1771.99" waitingTime="0.00" waitingCount="0" stopTime="0.00" timeLoss="18.95" rerouteNo="0" devices="tripinfo_veh67" vType="passenger" speedFactor="0.98" vaporized=""/>
    <personinfo id="ped23" depart="115.00" type="DEFAULT_PEDTYPE" speedFactor="1.00" duration="93.00" waitingTime="0.00" timeLoss="11.51" traveltime="93.00">
        <walk depart="115.00" departPos="0.00" arrival="208.00" arrivalPos="79.72" duration="93.00" routeLength="113.38" timeLoss="11.51" maxSpeed="1.39"/>
    </personinfo>
    <tripinfo id="veh145" depart="76.00" departLane="996984132_0" departPos="41.77" departSpeed="0.00" departDelay="0.60" arrival="212.00" arrivalLane="-48797772_1" arrivalPos="103.62" arrivalSpeed="13.09" duration="136.00" routeLength="1499.45" waitingTime="1.00" waitingCount="1" stopTime="0.00" timeLoss="27.05" rerouteNo="0" devices="tripinfo_veh145" vType="motorcycle" speedFactor="1.08" vaporized=""/>
    <tripinfo id="veh194" depart="101.00" departLane="-1364605473_0" departPos="31.99" departSpeed="0.00" departDelay="0.12" arrival="212.00" arrivalLane="1136301814#0_1" arrivalPos="40.78" arrivalSpeed="11.83" duration="111.00" routeLength="1062.82" waitingTime="4.00" waitingCount="1" stopTime="0.00" timeLoss="19.91" rerouteNo="0" devices="tripinfo_veh194" vType="passenger" speedFactor="0.89" vaporized=""/>
    <tripinfo id="veh102" depart="54.00" departLane="-859734514#1_0" departPos="21.97" departSpeed="0.00" departDelay="0.96" arrival="213.00" arrivalLane="945793491#1_1" arrivalPos="67.96" arrivalSpeed="4.69" duration="159.00" routeLength="1021.73" waitingTime="7.00" waitingCount="3" stopTime="0.00" timeLoss="32.37" rerouteNo="0" devices="tripinfo_veh102" vType="passenger" speedFactor="0.89" vaporized=""/>
    <tripinfo id="veh35" depart="19.00" departLane="222605087#3_1" departPos="20.05" departSpeed="0.00" departDelay="0.80" arrival="214.00" arrivalLane="43573573#2_1" arrivalPos="202.87" arrivalSpeed="15.04" duration="195.00" routeLength="1629.44" waitingTime="28.00" waitingCount="2" stopTime="0.00" timeLoss="59.38" rerouteNo="0" devices="tripinfo_veh35" vType="passenger" speedFactor="1.09" vaporized=""/>
    <tripinfo id="veh104" depart="55.00" departLane="48778485#0_1" departPos="19.62" departSpeed="0.00" departDelay="0.92" arrival="215.00" arrivalLane="984508802_0" arrivalPos="57.38" arrivalSpeed="4.38" duration="160.00" routeLength="1145.70" waitingTime="40.00" waitingCount="1" stopTime="0.00" timeLoss="62.41" rerouteNo="0" devices="tripinfo_veh104" vType="passenger" speedFactor="1.00" vaporized=""/>
    <tripinfo id="veh136" depart="71.00" departLane="-859734514#1_0" departPos="22.58" departSpeed="0.00" departDelay="0.28" arrival="215.00" arrivalLane="1136283361_0" arrivalPos="47.88" arrivalSpeed="5.79" duration="144.00" routeLength="1043.11" waitingTime="26.00" waitingCount="2" stopTime="0.00" timeLoss="58.32" rerouteNo="0" devices="tripinfo_veh136" vType="passenger" speedFactor="1.13" vaporized=""/>
    <tripinfo id="veh28" depart="15.00" departLane="-984521613_0" departPos="30.45" departSpeed="0.00" departDelay="0.44" arrival="216.00" arrivalLane="984508804_0" arrivalPos="26.89" arrivalSpeed="5.00" duration="201.00" routeLength="1310.05" waitingTime="63.00" waitingCount="2" stopTime="0.00" timeLoss="89.68" rerouteNo="0" devices="tripinfo_veh28" vType="passenger" speedFactor="0.94" vaporized=""/>
    <tripinfo id="veh120" depart="63.00" departLane="-92198451#1_1" departPos="476.84" departSpeed="0.00" departDelay="0.60" arrival="217.00" arrivalLane="1135854210_1" arrivalPos="13.11" arrivalSpeed="4.88" duration="154.00" routeLength="1477.07" waitingTime="6.00" waitingCount="1" stopTime="0.00" timeLoss="28.93" rerouteNo="0" devices="tripinfo_veh120" vType="passenger" speedFactor="0.89" vaporized=""/>
    <tripinfo id="veh259" depart="135.00" departLane="256684296_0" departPos="44.11" departSpeed="0.00" departDelay="0.32" arrival="217.00" arrivalLane="-530103975#1_1" arrivalPos="17.63" arrivalSpeed="12.81" duration="82.00" routeLength="717.08" waitingTime="0.00" waitingCount="0" stopTime="0.00" timeLoss="17.96" rerouteNo="0" devices="tripinfo_veh259" vType="emergency" speedFactor="1.00" vaporized=""/>
    <tripinfo id="veh45" depart="24.00" departLane="-648182739#1_1" departPos="189.85" departSpeed="0.00" departDelay="0.60" arrival="220.00" arrivalLane="48778441#3_1" arrivalPos="108.66" arrivalSpeed="14.07" duration="196.00" routeLength="2323.71" waitingTime="0.00" waitingCount="0" stopTime="0.00" timeLoss="28.21" rerouteNo="0" devices="tripinfo_veh45" vType="passenger" speedFactor="1.02" vaporized=""/>
    <tripinfo id="veh142" depart="74.00" departLane="-48778441#2_1" departPos="0.74" departSpeed="0.00" departDelay="0.16" arrival="221.00" arrivalLane="40269009#2_1" arrivalPos="65.05" arrivalSpeed="14.01" duration="147.00" routeLength="1320.72" waitingTime="17.00" waitingCount="1" stopTime="0.00" timeLoss="47.14" rerouteNo="0" devices="tripinfo_veh142" vType="motorcycle" speedFactor="1.02" vaporized=""/>
    <tripinfo id="veh197" depart="103.00" departLane="48788485#0_1" departPos="205.34" departSpeed="0.00" departDelay="0.56" arrival="225.00" arrivalLane="-647347140#1_1" arrivalPos="28.09" arrivalSpeed="13.18" duration="122.00" routeLength="1464.65" waitingTime="0.00" waitingCount="0" stopTime="0.00" timeLoss="14.64" rerouteNo="0" devices="tripinfo_veh197" vType="delivery" speedFactor="1.01" vaporized=""/>
    <tripinfo id="veh165" depart="86.00" departLane="48736664#0_1" departPos="24.72" departSpeed="0.00" departDelay="0.20" arrival="226.00" arrivalLane="-143207982#2_1" arrivalPos="8.52" arrivalSpeed="12.90" duration="140.00" routeLength="1522.90" waitingTime="0.00" waitingCount="0" stopTime="0.00" timeLoss="23.45" rerouteNo="0" devices="tripinfo_veh165" vType="emergency" speedFactor="1.00" vaporized=""/>
    <tripinfo id="veh228" depart="119.00" departLane="-48778503#1_1" departPos="55.25" departSpeed="0.00" departDelay="0.44" arrival="227.00" arrivalLane="43544138#6_1" arrivalPos="39.12" arrivalSpeed="14.35" duration="108.00" routeLength="1176.69" waitingTime="2.00" waitingCount="1" stopTime="0.00" timeLoss="23.67" rerouteNo="0" devices="tripinfo_veh228" vType="passenger" speedFactor="1.05" vaporized=""/>