<?xml version="1.0" encoding="UTF-8"?>

<!-- generated on 2025-06-15 22:57:57 by Eclipse SUMO sumo Version 1.22.0
<sumoConfiguration xmlns:xsi="http://www.w3.org/2001/XMLSchema-instance" xsi:noNamespaceSchemaLocation="http://sumo.dlr.de/xsd/sumoConfiguration.xsd">

    <input>
        <net-file value="E:/licenta/oras-mediu/2025-06-05-11-45-23\osm.net.xml"/>
        <route-files value="E:/licenta/oras-mediu/2025-06-05-11-45-23\full.rou.xml,E:/licenta/oras-mediu/2025-06-05-11-45-23\ ped.rou.xml,E:/licenta/oras-mediu/2025-06-05-11-45-23\ truck.rou.xml"/>
        <additional-files value="E:/licenta/oras-mediu/2025-06-05-11-45-23\osm.poly.xml,E:/licenta/oras-mediu/2025-06-05-11-45-23\ vtypes.xml"/>
    </input>

    <output>
        <summary-output value="E:/licenta/oras-mediu/2025-06-05-11-45-23\summary.xml"/>
        <tripinfo-output value="evaluation_run_outputs\baseline_outputs\tripinfo_baseline_ep25.xml"/>
    </output>

    <processing>
        <ignore-route-errors value="true"/>
        <tls.actuated.jam-threshold value="30"/>
    </processing>

    <routing>
        <device.rerouting.adaptation-steps value="18"/>
        <device.rerouting.adaptation-interval value="10"/>
    </routing>

    <report>
        <verbose value="true"/>
        <duration-log.statistics value="true"/>
        <no-step-log value="true"/>
    </report>

    <gui_only>
        <gui-settings-file value="E:/licenta/oras-mediu/2025-06-05-11-45-23\osm.view.xml"/>
    </gui_only>

</sumoConfiguration>
-->

<tripinfos xmlns:xsi="http://www.w3.org/2001/XMLSchema-instance" xsi:noNamespaceSchemaLocation="http://sumo.dlr.de/xsd/tripinfo_file.xsd">
    <tripinfo id="veh45" depart="28.00" departLane="-48736640#1_1" departPos="38.36" departSpeed="0.00" departDelay="0.55" arrival="55.00" arrivalLane="43546379_1" arrivalPos="170.39" arrivalSpeed="13.50" duration="27.00" routeLength="242.39" waitingTime="0.00" waitingCount="0" stopTime="0.00" timeLoss="7.10" rerouteNo="0" devices="tripinfo_veh45" vType="delivery" speedFactor="0.98" vaporized=""/>
    <tripinfo id="veh27" depart="17.00" departLane="-353939570#9_2" departPos="11.07" departSpeed="0.00" departDelay="0.53" arrival="67.00" arrivalLane="-1250915721#0_1" arrivalPos="14.93" arrivalSpeed="5.26" duration="50.00" routeLength="261.51" waitingTime="0.00" waitingCount="0" stopTime="0.00" timeLoss="9.11" rerouteNo="0" devices="tripinfo_veh27" vType="passenger" speedFactor="0.97" vaporized=""/>
    <tripinfo id="veh121" depart="74.00" departLane="250295381_1" departPos="38.32" departSpeed="0.00" departDelay="0.19" arrival="78.00" arrivalLane="222605085#2_1" arrivalPos="2.96" arrivalSpeed="5.10" duration="4.00" routeLength="14.05" waitingTime="0.00" waitingCount="0" stopTime="0.00" timeLoss="1.92" rerouteNo="0" devices="tripinfo_veh121" vType="passenger" speedFactor="0.94" vaporized=""/>
    <tripinfo id="veh14" depart="9.00" departLane="-43544184#4_1" departPos="15.51" departSpeed="0.00" departDelay="0.46" arrival="90.00" arrivalLane="43573573#0_1" arrivalPos="20.39" arrivalSpeed="12.07" duration="81.00" routeLength="725.66" waitingTime="7.00" waitingCount="1" stopTime="0.00" timeLoss="25.58" rerouteNo="0" devices="tripinfo_veh14" vType="passenger" speedFactor="1.02" vaporized=""/>
    <tripinfo id="veh5" depart="4.00" departLane="-996984132_0" departPos="78.47" departSpeed="0.00" departDelay="0.95" arrival="92.00" arrivalLane="-43573547#2_1" arrivalPos="42.21" arrivalSpeed="12.51" duration="88.00" routeLength="850.31" waitingTime="4.00" waitingCount="1" stopTime="0.00" timeLoss="22.68" rerouteNo="0" devices="tripinfo_veh5" vType="delivery" speedFactor="1.05" vaporized=""/>
    <tripinfo id="veh29" depart="18.00" departLane="578560104#5_1" departPos="11.59" departSpeed="0.00" departDelay="0.31" arrival="93.00" arrivalLane="40306162#1_1" arrivalPos="38.73" arrivalSpeed="12.42" duration="75.00" routeLength="726.73" waitingTime="0.00" waitingCount="0" stopTime="0.00" timeLoss="14.92" rerouteNo="0" devices="tripinfo_veh29" vType="passenger" speedFactor="0.94" vaporized=""/>
    <tripinfo id="veh102" depart="63.00" departLane="-48778503#0_1" departPos="29.71" departSpeed="0.00" departDelay="0.78" arrival="95.00" arrivalLane="48778497_1" arrivalPos="231.08" arrivalSpeed="13.64" duration="32.00" routeLength="314.99" waitingTime="0.00" waitingCount="0" stopTime="0.00" timeLoss="8.16" rerouteNo="0" devices="tripinfo_veh102" vType="passenger" speedFactor="1.00" vaporized=""/>
    <tripinfo id="veh73" depart="45.00" departLane="671642313_1" departPos="15.65" departSpeed="0.00" departDelay="0.47" arrival="107.00" arrivalLane="-383582499#3_1" arrivalPos="71.68" arrivalSpeed="11.94" duration="62.00" routeLength="643.35" waitingTime="0.00" waitingCount="0" stopTime="0.00" timeLoss="8.33" rerouteNo="0" devices="tripinfo_veh73" vType="passenger" speedFactor="0.91" vaporized=""/>
    <tripinfo id="veh83" depart="51.00" departLane="-353939570#7_1" departPos="10.12" departSpeed="0.00" departDelay="0.37" arrival="109.00" arrivalLane="40345956#0_1" arrivalPos="92.80" arrivalSpeed="13.28" duration="58.00" routeLength="652.51" waitingTime="0.00" waitingCount="0" stopTime="0.00" timeLoss="10.41" rerouteNo="0" devices="tripinfo_veh83" vType="delivery" speedFactor="1.03" vaporized=""/>
    <tripinfo id="veh86" depart="53.00" departLane="-40330571#1_1" departPos="0.97" departSpeed="0.00" departDelay="0.54" arrival="126.00" arrivalLane="40345956#1_1" arrivalPos="78.47" arrivalSpeed="13.50" duration="73.00" routeLength="769.60" waitingTime="0.00" waitingCount="0" stopTime="0.00" timeLoss="14.63" rerouteNo="0" devices="tripinfo_veh86" vType="delivery" speedFactor="1.01" vaporized=""/>
    <tripinfo id="veh76" depart="47.00" departLane="-43546648#4_1" departPos="3.52" departSpeed="0.00" departDelay="0.64" arrival="127.00" arrivalLane="48778453_1" arrivalPos="29.18" arrivalSpeed="11.43" duration="80.00" routeLength="727.15" waitingTime="0.00" waitingCount="0" stopTime="0.00" timeLoss="21.22" rerouteNo="0" devices="tripinfo_veh76" vType="emergency" speedFactor="1.00" vaporized=""/>
    <tripinfo id="veh140" depart="86.00" departLane="43544588#1_1" departPos="25.26" departSpeed="0.00" departDelay="0.60" arrival="137.00" arrivalLane="-43544202#1_1" arrivalPos="96.02" arrivalSpeed="12.15" duration="51.00" routeLength="520.45" waitingTime="0.00" waitingCount="0" stopTime="0.00" timeLoss="11.77" rerouteNo="0" devices="tripinfo_veh140" vType="motorcycle" speedFactor="1.02" vaporized=""/>
    <tripinfo id="veh13" depart="8.00" departLane="43546793_1" departPos="121.68" departSpeed="0.00" departDelay="0.07" arrival="148.00" arrivalLane="43544184#4_1" arrivalPos="17.47" arrivalSpeed="9.98" duration="140.00" routeLength="1558.02" waitingTime="0.00" waitingCount="0" stopTime="0.00" timeLoss="23.98" rerouteNo="0" devices="tripinfo_veh13" vType="emergency" speedFactor="1.00" vaporized=""/>
    <personinfo id="ped3" depart="15.00" type="DEFAULT_PEDTYPE" speedFactor="1.02" duration="140.00" waitingTime="0.00" timeLoss="13.69" traveltime="140.00">
        <walk depart="15.00" departPos="0.00" arrival="155.00" arrivalPos="16.34" duration="140.00" routeLength="179.73" timeLoss="13.69" maxSpeed="1.42"/>
    </personinfo>
    <tripinfo id="veh153" depart="94.00" departLane="48736617#1_1" departPos="44.80" departSpeed="0.00" departDelay="0.67" arrival="156.00" arrivalLane="-264868333_1" arrivalPos="76.76" arrivalSpeed="14.21" duration="62.00" routeLength="570.02" waitingTime="0.00" waitingCount="0" stopTime="0.00" timeLoss="19.49" rerouteNo="0" devices="tripinfo_veh153" vType="passenger" speedFactor="1.07" vaporized=""/>
    <tripinfo id="veh145" depart="89.00" departLane="578560104#6_1" departPos="4.48" departSpeed="0.00" departDelay="0.55" arrival="162.00" arrivalLane="-250295380#0_1" arrivalPos="168.50" arrivalSpeed="13.13" duration="73.00" routeLength="798.51" waitingTime="0.00" waitingCount="0" stopTime="0.00" timeLoss="11.78" rerouteNo="0" devices="tripinfo_veh145" vType="motorcycle" speedFactor="0.97" vaporized=""/>
    <tripinfo id="veh147" depart="90.00" departLane="-43546519#2_1" departPos="3.21" departSpeed="0.00" departDelay="0.33" arrival="162.00" arrivalLane="48778476_1" arrivalPos="90.71" arrivalSpeed="12.87" duration="72.00" routeLength="676.37" waitingTime="0.00" waitingCount="0" stopTime="0.00" timeLoss="16.83" rerouteNo="0" devices="tripinfo_veh147" vType="passenger" speedFactor="0.93" vaporized=""/>
    <tripinfo id="veh149" depart="91.00" departLane="48778526_1" departPos="53.84" departSpeed="0.00" departDelay="0.11" arrival="163.00" arrivalLane="-48778526_1" arrivalPos="97.35" arrivalSpeed="12.63" duration="72.00" routeLength="551.26" waitingTime="3.00" waitingCount="1" stopTime="0.00" timeLoss="22.91" rerouteNo="0" devices="tripinfo_veh149" vType="passenger" speedFactor="0.91" vaporized=""/>
    <tripinfo id="veh32" depart="20.00" departLane="40236203#0_1" departPos="24.17" departSpeed="0.00" departDelay="0.48" arrival="165.00" arrivalLane="-43544179#5_1" arrivalPos="42.26" arrivalSpeed="8.76" duration="145.00" routeLength="1516.81" waitingTime="0.00" waitingCount="0" stopTime="0.00" timeLoss="35.65" rerouteNo="0" devices="tripinfo_veh32" vType="passenger" speedFactor="1.03" vaporized=""/>
    <tripinfo id="veh64" depart="40.00" departLane="43546449#1_1" departPos="8.82" departSpeed="0.00" departDelay="0.96" arrival="165.00" arrivalLane="-383582519_0" arrivalPos="74.79" arrivalSpeed="5.48" duration="125.00" routeLength="1196.06" waitingTime="11.00" waitingCount="1" stopTime="0.00" timeLoss="34.53" rerouteNo="0" devices="tripinfo_veh64" vType="passenger" speedFactor="1.08" vaporized=""/>
    <tripinfo id="veh164" depart="101.00" departLane="43546789#0_1" departPos="8.12" departSpeed="0.00" departDelay="0.96" arrival="165.00" arrivalLane="-43573547#7_1" arrivalPos="83.95" arrivalSpeed="12.88" duration="64.00" routeLength="689.75" waitingTime="0.00" waitingCount="0" stopTime="0.00" timeLoss="12.11" rerouteNo="0" devices="tripinfo_veh164" vType="emergency" speedFactor="1.00" vaporized=""/>
    <personinfo id="ped11" depart="55.00" type="DEFAULT_PEDTYPE" speedFactor="0.88" duration="111.00" waitingTime="0.00" timeLoss="12.45" traveltime="111.00">
        <walk depart="55.00" departPos="0.00" arrival="166.00" arrivalPos="2.50" duration="111.00" routeLength="120.99" timeLoss="12.45" maxSpeed="1.23"/>
    </personinfo>
    <tripinfo id="veh144" depart="88.00" departLane="48736622#0_1" departPos="0.12" departSpeed="0.00" departDelay="0.16" arrival="167.00" arrivalLane="984513295_0" arrivalPos="47.07" arrivalSpeed="4.57" duration="79.00" routeLength="582.71" waitingTime="16.00" waitingCount="1" stopTime="0.00" timeLoss="32.39" rerouteNo="0" devices="tripinfo_veh144" vType="motorcycle" speedFactor="1.08" vaporized=""/>
    <tripinfo id="veh2" depart="2.00" departLane="-92198453#4_1" departPos="37.06" departSpeed="0.00" departDelay="0.78" arrival="168.00" arrivalLane="-43544138#5_1" arrivalPos="39.45" arrivalSpeed="13.70" duration="166.00" routeLength="2133.51" waitingTime="0.00" waitingCount="0" stopTime="0.00" timeLoss="20.64" rerouteNo="0" devices="tripinfo_veh2" vType="passenger" speedFactor="1.08" vaporized=""/>
    <tripinfo id="veh50" depart="31.00" departLane="-43546648#4_1" departPos="9.33" departSpeed="0.00" departDelay="0.50" arrival="170.00" arrivalLane="-43546688#0_1" arrivalPos="19.83" arrivalSpeed="12.97" duration="139.00" routeLength="1075.28" waitingTime="34.00" waitingCount="1" stopTime="0.00" timeLoss="56.89" rerouteNo="0" devices="tripinfo_veh50" vType="delivery" speedFactor="0.99" vaporized=""/>
    <tripinfo id="veh195" depart="119.00" departLane="353939570#9_1" departPos="28.60" departSpeed="0.00" departDelay="0.05" arrival="170.00" arrivalLane="859734514#0_0" arrivalPos="30.02" arrivalSpeed="5.13" duration="51.00" routeLength="574.26" waitingTime="0.00" waitingCount="0" stopTime="0.00" timeLoss="8.83" rerouteNo="0" devices="tripinfo_veh195" vType="passenger" speedFactor="1.10" vaporized=""/>
    <tripinfo id="veh158" depart="97.00" departLane="383582497_0" departPos="3.80" departSpeed="0.00" departDelay="0.62" arrival="173.00" arrivalLane="-40314853#1_1" arrivalPos="111.58" arrivalSpeed="15.27" duration="76.00" routeLength="879.19" waitingTime="0.00" waitingCount="0" stopTime="0.00" timeLoss="12.10" rerouteNo="0" devices="tripinfo_veh158" vType="passenger" speedFactor="1.15" vaporized=""/>
    <tripinfo id="veh156" depart="96.00" departLane="258551281_1" departPos="51.22" departSpeed="0.00" departDelay="0.84" arrival="175.00" arrivalLane="-48736620#2_1" arrivalPos="95.25" arrivalSpeed="12.23" duration="79.00" routeLength="737.66" waitingTime="7.00" waitingCount="1" stopTime="0.00" timeLoss="17.66" rerouteNo="0" devices="tripinfo_veh156" vType="passenger" speedFactor="0.90" vaporized=""/>
    <tripinfo id="veh69" depart="43.00" departLane="-48736646#1_1" departPos="115.60" departSpeed="0.00" departDelay="0.91" arrival="176.00" arrivalLane="1136301814#0_1" arrivalPos="40.78" arrivalSpeed="10.80" duration="133.00" routeLength="1090.58" waitingTime="15.00" waitingCount="2" stopTime="0.00" timeLoss="33.81" rerouteNo="0" devices="tripinfo_veh69" vType="passenger" speedFactor="0.83" vaporized=""/>
    <tripinfo id="veh105" depart="65.00" departLane="647347140#1_1" departPos="22.44" departSpeed="0.00" departDelay="0.95" arrival="177.00" arrivalLane="996489799#1_0" arrivalPos="59.51" arrivalSpeed="4.97" duration="112.00" routeLength="1142.64" waitingTime="0.00" waitingCount="0" stopTime="0.00" timeLoss="21.58" rerouteNo="0" devices="tripinfo_veh105" vType="passenger" speedFactor="1.03" vaporized=""/>
    <personinfo id="ped18" depart="90.00" type="DEFAULT_PEDTYPE" speedFactor="0.85" duration="88.00" waitingTime="0.00" timeLoss="9.62" traveltime="88.00">
        <walk depart="90.00" departPos="0.00" arrival="178.00" arrivalPos="9.13" duration="88.00" routeLength="92.09" timeLoss="9.62" maxSpeed="1.17"/>
    </personinfo>
    <tripinfo id="veh59" depart="36.00" departLane="48778473#1_1" departPos="23.21" departSpeed="0.00" departDelay="0.01" arrival="178.00" arrivalLane="-223883702_1" arrivalPos="271.06" arrivalSpeed="13.68" duration="142.00" routeLength="1713.70" waitingTime="0.00" waitingCount="0" stopTime="0.00" timeLoss="19.86" rerouteNo="0" devices="tripinfo_veh59" vType="passenger" speedFactor="1.03" vaporized=""/>
    <tripinfo id="veh78" depart="48.00" departLane="-250295380#1_1" departPos="75.77" departSpeed="0.00" departDelay="0.42" arrival="178.00" arrivalLane="994066251#1_0" arrivalPos="3.30" arrivalSpeed="4.73" duration="130.00" routeLength="1301.26" waitingTime="0.00" waitingCount="0" stopTime="0.00" timeLoss="22.13" rerouteNo="0" devices="tripinfo_veh78" vType="passenger" speedFactor="1.06" vaporized=""/>
    <tripinfo id="veh192" depart="118.00" departLane="40314853#1_1" departPos="68.45" departSpeed="0.00" departDelay="0.88" arrival="178.00" arrivalLane="-258551281_1" arrivalPos="67.94" arrivalSpeed="13.69" duration="60.00" routeLength="688.71" waitingTime="0.00" waitingCount="0" stopTime="0.00" timeLoss="10.06" rerouteNo="0" devices="tripinfo_veh192" vType="passenger" speedFactor="1.04" vaporized=""/>
    <tripinfo id="veh124" depart="76.00" departLane="-1205517951_0" departPos="34.69" departSpeed="0.00" departDelay="0.36" arrival="179.00" arrivalLane="1107366376_0" arrivalPos="149.99" arrivalSpeed="5.87" duration="103.00" routeLength="1157.64" waitingTime="0.00" waitingCount="0" stopTime="0.00" timeLoss="12.61" rerouteNo="0" devices="tripinfo_veh124" vType="passenger" speedFactor="1.18" vaporized=""/>
    <tripinfo id="veh0" depart="0.00" departLane="647998062_1" departPos="69.34" departSpeed="0.00" departDelay="0.00" arrival="183.00" arrivalLane="-48778498#1_1" arrivalPos="23.69" arrivalSpeed="12.88" duration="183.00" routeLength="1897.56" waitingTime="0.00" waitingCount="0" stopTime="0.00" timeLoss="34.56" rerouteNo="0" devices="tripinfo_veh0" vType="motorcycle" speedFactor="0.98" vaporized=""/>
    <tripinfo id="veh36" depart="22.00" departLane="-43546688#0_1" departPos="2.08" departSpeed="0.00" departDelay="0.04" arrival="183.00" arrivalLane="222605086_1" arrivalPos="27.07" arrivalSpeed="5.29" duration="161.00" routeLength="1731.30" waitingTime="3.00" waitingCount="1" stopTime="0.00" timeLoss="38.41" rerouteNo="0" devices="tripinfo_veh36" vType="passenger" speedFactor="1.09" vaporized=""/>
    <tripinfo id="veh79" depart="49.00" departLane="1136301812#0_1" departPos="35.91" departSpeed="0.00" departDelay="0.81" arrival="183.00" arrivalLane="E23_1" arrivalPos="246.50" arrivalSpeed="11.89" duration="134.00" routeLength="969.02" waitingTime="33.00" waitingCount="1" stopTime="0.00" timeLoss="51.67" rerouteNo="0" devices="tripinfo_veh79" vType="passenger" speedFactor="0.89" vaporized=""/>
    <tripinfo id="veh111" depart="68.00" departLane="647998063#0_1" departPos="7.30" departSpeed="0.00" departDelay="0.29" arrival="183.00" arrivalLane="43544624#3_1" arrivalPos="179.18" arrivalSpeed="14.04" duration="115.00" routeLength="1277.60" waitingTime="0.00" waitingCount="0" stopTime="0.00" timeLoss="19.79" rerouteNo="0" devices="tripinfo_veh111" vType="passenger" speedFactor="1.02" vaporized=""/>
    <tripinfo id="veh257" depart="157.00" departLane="48736613#1_1" departPos="3.04" departSpeed="0.00" departDelay="0.23" arrival="183.00" arrivalLane="48736613#3_1" arrivalPos="42.68" arrivalSpeed="14.31" duration="26.00" routeLength="330.45" waitingTime="0.00" waitingCount="0" stopTime="0.00" timeLoss="3.67" rerouteNo="0" devices="tripinfo_veh257" vType="passenger" speedFactor="1.07" vaporized=""/>
    <tripinfo id="veh171" depart="105.00" departLane="-43544197#8_1" departPos="99.14" departSpeed="0.00" departDelay="0.69" arrival="184.00" arrivalLane="48788485#7_1" arrivalPos="131.11" arrivalSpeed="13.80" duration="79.00" routeLength="892.41" waitingTime="0.00" waitingCount="0" stopTime="0.00" timeLoss="14.31" rerouteNo="0" devices="tripinfo_veh171" vType="passenger" speedFactor="1.04" vaporized=""/>
    <tripinfo id="veh208" depart="127.00" departLane="-43544202#0_1" departPos="138.93" departSpeed="0.00" departDelay="0.12" arrival="189.00" arrivalLane="-43544138#0_1" arrivalPos="44.10" arrivalSpeed="13.04" duration="62.00" routeLength="628.99" waitingTime="0.00" waitingCount="0" stopTime="0.00" timeLoss="14.33" rerouteNo="0" devices="tripinfo_veh208" vType="passenger" speedFactor="1.01" vaporized=""/>
    <tripinfo id="veh22" depart="14.00" departLane="43546935#2_1" departPos="35.94" departSpeed="0.00" departDelay="0.58" arrival="191.00" arrivalLane="48778485#1_1" arrivalPos="18.27" arrivalSpeed="10.47" duration="177.00" routeLength="1500.95" waitingTime="21.00" waitingCount="1" stopTime="0.00" timeLoss="51.94" rerouteNo="0" devices="tripinfo_veh22" vType="passenger" speedFactor="0.89" vaporized=""/>
    <tripinfo id="veh25" depart="16.00" departLane="-647621858_0" departPos="39.86" departSpeed="0.00" departDelay="0.75" arrival="191.00" arrivalLane="48736617#1_1" arrivalPos="109.81" arrivalSpeed="15.19" duration="175.00" routeLength="1608.17" waitingTime="39.00" waitingCount="1" stopTime="0.00" timeLoss="62.60" rerouteNo="0" devices="tripinfo_veh25" vType="passenger" speedFactor="1.12" vaporized=""/>
    <tripinfo id="veh137" depart="84.00" departLane="-43544138#3_1" departPos="17.40" departSpeed="0.00" departDelay="0.43" arrival="191.00" arrivalLane="258551279_0" arrivalPos="179.06" arrivalSpeed="3.98" duration="107.00" routeLength="795.83" waitingTime="0.00" waitingCount="0" stopTime="0.00" timeLoss="18.52" rerouteNo="0" devices="tripinfo_veh137" vType="passenger" speedFactor="0.90" vaporized=""/>
    <tripinfo id="veh232" depart="142.00" departLane="250295383#6_1" departPos="5.98" departSpeed="0.00" departDelay="0.48" arrival="192.00" arrivalLane="-530103975#0_1" arrivalPos="70.63" arrivalSpeed="13.36" duration="50.00" routeLength="454.81" waitingTime="0.00" waitingCount="0" stopTime="0.00" timeLoss="12.59" rerouteNo="0" devices="tripinfo_veh232" vType="passenger" speedFactor="0.98" vaporized=""/>
    <tripinfo id="veh131" depart="80.00" departLane="-48778461#0_1" departPos="45.90" departSpeed="0.00" departDelay="0.09" arrival="194.00" arrivalLane="40236144#2_1" arrivalPos="51.61" arrivalSpeed="13.33" duration="114.00" routeLength="1100.73" waitingTime="0.00" waitingCount="0" stopTime="0.00" timeLoss="24.32" rerouteNo="0" devices="tripinfo_veh131" vType="passenger" speedFactor="0.97" vaporized=""/>
    <tripinfo id="veh184" depart="113.00" departLane="48778495#0_1" departPos="23.93" departSpeed="0.00" departDelay="0.76" arrival="194.00" arrivalLane="353939570#8_2" arrivalPos="81.94" arrivalSpeed="14.75" duration="81.00" routeLength="603.33" waitingTime="15.00" waitingCount="1" stopTime="0.00" timeLoss="32.26" rerouteNo="0" devices="tripinfo_veh184" vType="passenger" speedFactor="1.09" vaporized=""/>
    <tripinfo id="veh77" depart="47.00" departLane="43573573#3_1" departPos="38.64" departSpeed="0.00" departDelay="0.03" arrival="198.00" arrivalLane="40236259_1" arrivalPos="166.86" arrivalSpeed="13.46" duration="151.00" routeLength="1635.04" waitingTime="0.00" waitingCount="0" stopTime="0.00" timeLoss="25.96" rerouteNo="0" devices="tripinfo_veh77" vType="delivery" speedFactor="0.98" vaporized=""/>
    <tripinfo id="veh127" depart="78.00" departLane="353939586#1_1" departPos="24.94" departSpeed="0.00" departDelay="0.53" arrival="199.00" arrivalLane="40266619_1" arrivalPos="33.64" arrivalSpeed="13.11" duration="121.00" routeLength="1045.22" waitingTime="21.00" waitingCount="2" stopTime="0.00" timeLoss="43.14" rerouteNo="0" devices="tripinfo_veh127" vType="delivery" speedFactor="1.00" vaporized=""/>
    <tripinfo id="veh119" depart="73.00" departLane="40299283_1" departPos="25.98" departSpeed="0.00" departDelay="0.41" arrival="201.00" arrivalLane="984521612#1_0" arrivalPos="29.21" arrivalSpeed="5.18" duration="128.00" routeLength="1037.93" waitingTime="10.00" waitingCount="2" stopTime="0.00" timeLoss="39.83" rerouteNo="0" devices="tripinfo_veh119" vType="passenger" speedFactor="0.97" vaporized=""/>
    <tripinfo id="veh49" depart="30.00" departLane="43544184#3_1" departPos="28.15" departSpeed="0.00" departDelay="0.11" arrival="202.00" arrivalLane="-43544138#2_1" arrivalPos="0.25" arrivalSpeed="5.15" duration="172.00" routeLength="816.21" waitingTime="10.00" waitingCount="1" stopTime="0.00" timeLoss="24.52" rerouteNo="0" devices="tripinfo_veh49" vType="bicycle" speedFactor="1.00" vaporized=""/>
    <tripinfo id="veh80" depart="49.00" departLane="-43544001#1_1" departPos="1.28" departSpeed="0.00" departDelay="0.20" arrival="204.00" arrivalLane="-43547017#5_1" arrivalPos="24.30" arrivalSpeed="12.05" duration="155.00" routeLength="1832.97" waitingTime="7.00" waitingCount="1" stopTime="0.00" timeLoss="29.66" rerouteNo="0" devices="tripinfo_veh80" vType="passenger" speedFactor="1.08" vaporized=""/>
    <personinfo id="ped31" depart="155.00" type="DEFAULT_PEDTYPE" speedFactor="0.98" duration="50.00" waitingTime="0.00" timeLoss="4.57" traveltime="50.00">
        <walk depart="155.00" departPos="0.00" arrival="205.00" arrivalPos="8.38" duration="50.00" routeLength="61.67" timeLoss="4.57" maxSpeed="1.36"/>
    </personinfo>
    <tripinfo id="veh37" depart="23.00" departLane="-43546115_1" departPos="115.46" departSpeed="0.00" departDelay="0.43" arrival="205.00" arrivalLane="48797773_1" arrivalPos="23.80" arrivalSpeed="13.10" duration="182.00" routeLength="1575.71" waitingTime="27.00" waitingCount="1" stopTime="0.00" timeLoss="58.50" rerouteNo="0" devices="tripinfo_veh37" vType="passenger" speedFactor="0.95" vaporized=""/>
    <tripinfo id="veh103" depart="63.00" departLane="530106516#0_1" departPos="16.39" departSpeed="0.00" departDelay="0.17" arrival="206.00" arrivalLane="-40306162#0_1" arrivalPos="91.74" arrivalSpeed="15.52" duration="143.00" routeLength="1525.92" waitingTime="0.00" waitingCount="0" stopTime="0.00" timeLoss="36.96" rerouteNo="0" devices="tripinfo_veh103" vType="passenger" speedFactor="1.12" vaporized=""/>
    <tripinfo id="veh7" depart="5.00" departLane="48778464#3_1" departPos="0.09" departSpeed="0.00" departDelay="0.73" arrival="207.00" arrivalLane="1250915722#3_1" arrivalPos="5.41" arrivalSpeed="5.69" duration="202.00" routeLength="1935.06" waitingTime="1.00" waitingCount="1" stopTime="0.00" timeLoss="48.88" rerouteNo="0" devices="tripinfo_veh7" vType="passenger" speedFactor="1.12" vaporized=""/>
    <tripinfo id="veh23" depart="15.00" departLane="383582518#0_0" departPos="32.28" departSpeed="0.00" departDelay="0.97" arrival="207.00" arrivalLane="-222605084#5_1" arrivalPos="9.96" arrivalSpeed="6.35" duration="192.00" routeLength="2245.29" waitingTime="0.00" waitingCount="0" stopTime="0.00" timeLoss="20.08" rerouteNo="0" devices="tripinfo_veh23" vType="passenger" speedFactor="1.15" vaporized=""/>
    <tripinfo id="veh21" depart="13.00" departLane="-48736641_1" departPos="3.77" departSpeed="0.00" departDelay="0.19" arrival="209.00" arrivalLane="-859726677#0_1" arrivalPos="35.20" arrivalSpeed="5.18" duration="196.00" routeLength="2148.94" waitingTime="22.00" waitingCount="1" stopTime="0.00" timeLoss="51.67" rerouteNo="0" devices="tripinfo_veh21" vType="passenger" speedFactor="1.13" vaporized=""/>
    <tripinfo id="veh89" depart="55.00" departLane="48778500#1_1" departPos="27.44" departSpeed="0.00" departDelay="0.71" arrival="211.00" arrivalLane="-647226815#0_1" arrivalPos="44.37" arrivalSpeed="13.22" duration="156.00" routeLength="1643.77" waitingTime="1.00" waitingCount="1" stopTime="0.00" timeLoss="29.24" rerouteNo="0" devices="tripinfo_veh89" vType="passenger" speedFactor="0.97" vaporized=""/>
    <tripinfo id="veh57" depart="35.00" departLane="-43546039#0_1" departPos="46.52" departSpeed="0.00" departDelay="0.23" arrival="212.00" arrivalLane="-43546688#0_1" arrivalPos="19.83" arrivalSpeed="11.73" duration="177.00" routeLength="2116.96" waitingTime="0.00" waitingCount="0" stopTime="0.00" timeLoss="27.14" rerouteNo="0" devices="tripinfo_veh57" vType="passenger" speedFactor="1.06" vaporized=""/>
    <tripinfo id="veh12" depart="8.00" departLane="-945793491#0_1" departPos="10.63" departSpeed="0.00" departDelay="0.68" arrival="213.00" arrivalLane="48778431#3_1" arrivalPos="23.48" arrivalSpeed="12.73" duration="205.00" routeLength="1599.91" waitingTime="49.00" waitingCount="1" stopTime="0.00" timeLoss="66.08" rerouteNo="0" devices="tripinfo_veh12" vType="delivery" speedFactor="0.97" vaporized=""/>
    <personinfo id="ped27" depart="135.00" type="DEFAULT_PEDTYPE" speedFactor="0.96" duration="81.00" waitingTime="0.00" timeLoss="9.04" traveltime="81.00">
        <walk depart="135.00" departPos="0.00" arrival="216.00" arrivalPos="27.48" duration="81.00" routeLength="95.68" timeLoss="9.04" maxSpeed="1.33"/>
    </personinfo>
    <tripinfo id="veh85" depart="52.00" departLane="304695350#0_1" departPos="0.13" departSpeed="0.00" departDelay="0.15" arrival="218.00" arrivalLane="-174818022#1_0" arrivalPos="93.09" arrivalSpeed="4.11" duration="166.00" routeLength="963.13" waitingTime="10.00" waitingCount="2" stopTime="0.00" timeLoss="40.61" rerouteNo="0" devices="tripinfo_veh85" vType="passenger" speedFactor="0.87" vaporized=""/>
    <tripinfo id="veh10" depart="7.00" departLane="-48736640#1_1" departPos="45.74" departSpeed="0.00" departDelay="0.90" arrival="219.00" arrivalLane="48778497_1" arrivalPos="231.08" arrivalSpeed="13.85" duration="212.00" routeLength="2211.61" waitingTime="27.00" waitingCount="1" stopTime="0.00" timeLoss="55.17" rerouteNo="0" devices="tripinfo_veh10" vType="passenger" speedFactor="1.04" vaporized=""/>
    <tripinfo id="veh155" depart="95.00" departLane="43546343#2_1" departPos="61.77" departSpeed="0.00" departDelay="0.45" arrival="219.00" arrivalLane="222609002#3_1" arrivalPos="89.31" arrivalSpeed="14.69" duration="124.00" routeLength="1395.03" waitingTime="9.00" waitingCount="1" stopTime="0.00" timeLoss="31.07" rerouteNo="0" devices="tripinfo_veh155" vType="passenger" speedFactor="1.10" vaporized=""/>
    <tripinfo id="veh65" depart="40.00" departLane="40330575#4_1" departPos="38.20" departSpeed="0.00" departDelay="0.35" arrival="222.00" arrivalLane="43544197#8_1" arrivalPos="132.38" arrivalSpeed="13.43" duration="182.00" routeLength="2047.24" waitingTime="0.00" waitingCount="0" stopTime="0.00" timeLoss="25.29" rerouteNo="0" devices="tripinfo_veh65" vType="passenger" speedFactor="0.98" vaporized=""/>
    <tripinfo id="veh44" depart="27.00" departLane="48736614#2_1" departPos="39.59" departSpeed="0.00" departDelay="0.16" arrival="224.00" arrivalLane="48736666#2_1" arrivalPos="56.15" arrivalSpeed="11.25" duration="197.00" routeLength="1488.95" waitingTime="35.00" waitingCount="1" stopTime="0.00" timeLoss="71.77" rerouteNo="0" devices="tripinfo_veh44" vType="motorcycle" speedFactor="0.90" vaporized=""/>
    <personinfo id="ped34" depart="170.00" type="DEFAULT_PEDTYPE" speedFactor="0.87" duration="55.00" waitingTime="0.00" timeLoss="5.27" traveltime="55.00">
        <walk depart="170.00" departPos="0.00" arrival="225.00" arrivalPos="7.69" duration="55.00" routeLength="59.80" timeLoss="5.27" maxSpeed="1.20"/>
    </personinfo>
    <tripinfo id="veh47" depart="29.00" departLane="-92198451#2_1" departPos="97.00" departSpeed="0.00" departDelay="0.33" arrival="225.00" arrivalLane="40306162#1_1" arrivalPos="38.73" arrivalSpeed="12.79" duration="196.00" routeLength="2190.62" waitingTime="7.00" waitingCount="1" stopTime="0.00" timeLoss="33.57" rerouteNo="0" devices="tripinfo_veh47" vType="passenger" speedFactor="1.00" vaporized=""/>