<?xml version="1.0" encoding="UTF-8"?>

<!-- generated on 2025-06-15 22:49:26 by Eclipse SUMO sumo Version 1.22.0
<sumoConfiguration xmlns:xsi="http://www.w3.org/2001/XMLSchema-instance" xsi:noNamespaceSchemaLocation="http://sumo.dlr.de/xsd/sumoConfiguration.xsd">

    <input>
        <net-file value="E:/licenta/oras-mediu/2025-06-05-11-45-23\osm.net.xml"/>
        <route-files value="E:/licenta/oras-mediu/2025-06-05-11-45-23\full.rou.xml,E:/licenta/oras-mediu/2025-06-05-11-45-23\ ped.rou.xml,E:/licenta/oras-mediu/2025-06-05-11-45-23\ truck.rou.xml"/>
        <additional-files value="E:/licenta/oras-mediu/2025-06-05-11-45-23\osm.poly.xml,E:/licenta/oras-mediu/2025-06-05-11-45-23\ vtypes.xml"/>
    </input>

    <output>
        <summary-output value="E:/licenta/oras-mediu/2025-06-05-11-45-23\summary.xml"/>
        <tripinfo-output value="evaluation_run_outputs\baseline_outputs\tripinfo_baseline_ep23.xml"/>
    </output>

    <processing>
        <ignore-route-errors value="true"/>
        <tls.actuated.jam-threshold value="30"/>
    </processing>

    <routing>
        <device.rerouting.adaptation-steps value="18"/>
        <device.rerouting.adaptation-interval value="10"/>
    </routing>

    <report>
        <verbose value="true"/>
        <duration-log.statistics value="true"/>
        <no-step-log value="true"/>
    </report>

    <gui_only>
        <gui-settings-file value="E:/licenta/oras-mediu/2025-06-05-11-45-23\osm.view.xml"/>
    </gui_only>

</sumoConfiguration>
-->

<tripinfos xmlns:xsi="http://www.w3.org/2001/XMLSchema-instance" xsi:noNamespaceSchemaLocation="http://sumo.dlr.de/xsd/tripinfo_file.xsd">
    <tripinfo id="veh21" depart="10.00" departLane="43544588#1_1" departPos="1.14" departSpeed="0.00" departDelay="0.76" arrival="53.00" arrivalLane="-48778526_1" arrivalPos="97.35" arrivalSpeed="11.54" duration="43.00" routeLength="379.78" waitingTime="0.00" waitingCount="0" stopTime="0.00" timeLoss="8.84" rerouteNo="0" devices="tripinfo_veh21" vType="passenger" speedFactor="0.89" vaporized=""/>
    <tripinfo id="veh5" depart="3.00" departLane="-1136279388_0" departPos="18.27" departSpeed="0.00" departDelay="0.80" arrival="70.00" arrivalLane="-48736601_1" arrivalPos="280.11" arrivalSpeed="13.61" duration="67.00" routeLength="711.65" waitingTime="0.00" waitingCount="0" stopTime="0.00" timeLoss="12.94" rerouteNo="0" devices="tripinfo_veh5" vType="delivery" speedFactor="1.05" vaporized=""/>
    <tripinfo id="veh16" depart="8.00" departLane="1135855912_1" departPos="83.41" departSpeed="0.00" departDelay="0.96" arrival="71.00" arrivalLane="492965073#8_2" arrivalPos="91.29" arrivalSpeed="12.23" duration="63.00" routeLength="604.34" waitingTime="0.00" waitingCount="0" stopTime="0.00" timeLoss="10.73" rerouteNo="0" devices="tripinfo_veh16" vType="passenger" speedFactor="0.89" vaporized=""/>
    <tripinfo id="veh22" depart="10.00" departLane="-48778475#0_1" departPos="42.36" departSpeed="0.00" departDelay="0.32" arrival="76.00" arrivalLane="-40236220#0_1" arrivalPos="33.44" arrivalSpeed="15.73" duration="66.00" routeLength="833.30" waitingTime="0.00" waitingCount="0" stopTime="0.00" timeLoss="11.85" rerouteNo="0" devices="tripinfo_veh22" vType="passenger" speedFactor="1.15" vaporized=""/>
    <personinfo id="ped12" depart="60.00" type="DEFAULT_PEDTYPE" speedFactor="1.03" duration="23.00" waitingTime="0.00" timeLoss="2.82" traveltime="23.00">
        <walk depart="60.00" departPos="0.00" arrival="83.00" arrivalPos="15.57" duration="23.00" routeLength="28.84" timeLoss="2.82" maxSpeed="1.43"/>
    </personinfo>
    <tripinfo id="veh24" depart="11.00" departLane="40265777#1_1" departPos="63.07" departSpeed="0.00" departDelay="0.44" arrival="85.00" arrivalLane="1136283379#1_1" arrivalPos="30.99" arrivalSpeed="7.07" duration="74.00" routeLength="313.45" waitingTime="32.00" waitingCount="1" stopTime="0.00" timeLoss="45.14" rerouteNo="0" devices="tripinfo_veh24" vType="passenger" speedFactor="0.99" vaporized=""/>
    <tripinfo id="veh90" depart="40.00" departLane="-1136289992_1" departPos="0.85" departSpeed="0.00" departDelay="0.40" arrival="87.00" arrivalLane="-43544184#4_1" arrivalPos="17.47" arrivalSpeed="10.21" duration="47.00" routeLength="477.55" waitingTime="0.00" waitingCount="0" stopTime="0.00" timeLoss="11.49" rerouteNo="0" devices="tripinfo_veh90" vType="passenger" speedFactor="1.13" vaporized=""/>
    <tripinfo id="veh144" depart="64.00" departLane="40299283_1" departPos="40.72" departSpeed="0.00" departDelay="0.64" arrival="92.00" arrivalLane="48797766#2_1" arrivalPos="182.85" arrivalSpeed="12.62" duration="28.00" routeLength="266.69" waitingTime="0.00" waitingCount="0" stopTime="0.00" timeLoss="5.64" rerouteNo="0" devices="tripinfo_veh144" vType="delivery" speedFactor="0.97" vaporized=""/>
    <tripinfo id="veh50" depart="22.00" departLane="222609002#4_1" departPos="17.94" departSpeed="0.00" departDelay="0.00" arrival="99.00" arrivalLane="-43544184#2_1" arrivalPos="44.27" arrivalSpeed="12.97" duration="77.00" routeLength="838.49" waitingTime="0.00" waitingCount="0" stopTime="0.00" timeLoss="13.42" rerouteNo="0" devices="tripinfo_veh50" vType="delivery" speedFactor="0.99" vaporized=""/>
    <tripinfo id="veh26" depart="12.00" departLane="-470210923#3_1" departPos="8.01" departSpeed="0.00" departDelay="0.56" arrival="100.00" arrivalLane="-250295382_1" arrivalPos="106.55" arrivalSpeed="12.61" duration="88.00" routeLength="782.18" waitingTime="16.00" waitingCount="1" stopTime="0.00" timeLoss="30.00" rerouteNo="0" devices="tripinfo_veh26" vType="motorcycle" speedFactor="1.02" vaporized=""/>
    <tripinfo id="veh73" depart="33.00" departLane="-222608881#1_1" departPos="22.72" departSpeed="0.00" departDelay="0.88" arrival="104.00" arrivalLane="-43547017#2_1" arrivalPos="56.55" arrivalSpeed="15.72" duration="71.00" routeLength="549.21" waitingTime="0.00" waitingCount="0" stopTime="0.00" timeLoss="33.23" rerouteNo="0" devices="tripinfo_veh73" vType="passenger" speedFactor="1.14" vaporized=""/>
    <tripinfo id="veh98" depart="44.00" departLane="-1136289988_1" departPos="2.54" departSpeed="0.00" departDelay="0.88" arrival="105.00" arrivalLane="48778431#2_2" arrivalPos="131.16" arrivalSpeed="14.33" duration="61.00" routeLength="617.83" waitingTime="0.00" waitingCount="0" stopTime="0.00" timeLoss="13.57" rerouteNo="0" devices="tripinfo_veh98" vType="passenger" speedFactor="1.03" vaporized=""/>
    <tripinfo id="veh60" depart="27.00" departLane="-1250915722#3_1" departPos="5.31" departSpeed="0.00" departDelay="0.60" arrival="106.00" arrivalLane="353939570#10_1" arrivalPos="350.36" arrivalSpeed="14.26" duration="79.00" routeLength="678.23" waitingTime="0.00" waitingCount="0" stopTime="0.00" timeLoss="10.09" rerouteNo="0" devices="tripinfo_veh60" vType="passenger" speedFactor="1.09" vaporized=""/>
    <tripinfo id="veh83" depart="37.00" departLane="-250295380#1_1" departPos="19.66" departSpeed="0.00" departDelay="0.48" arrival="113.00" arrivalLane="-40236220#1_1" arrivalPos="30.08" arrivalSpeed="12.65" duration="76.00" routeLength="746.84" waitingTime="2.00" waitingCount="1" stopTime="0.00" timeLoss="29.65" rerouteNo="0" devices="tripinfo_veh83" vType="passenger" speedFactor="1.25" vaporized=""/>
    <tripinfo id="veh248" depart="110.00" departLane="-33910094#1_0" departPos="2.37" departSpeed="0.00" departDelay="0.88" arrival="125.00" arrivalLane="995052775_0" arrivalPos="33.49" arrivalSpeed="5.28" duration="15.00" routeLength="82.10" waitingTime="0.00" waitingCount="0" stopTime="0.00" timeLoss="4.57" rerouteNo="0" devices="tripinfo_veh248" vType="passenger" speedFactor="1.07" vaporized=""/>
    <tripinfo id="veh186" depart="85.00" departLane="43544184#2_1" departPos="5.91" departSpeed="0.00" departDelay="3.16" arrival="126.00" arrivalLane="43573769#1_1" arrivalPos="54.95" arrivalSpeed="13.87" duration="41.00" routeLength="457.96" waitingTime="0.00" waitingCount="0" stopTime="0.00" timeLoss="9.00" rerouteNo="0" devices="tripinfo_veh186" vType="delivery" speedFactor="1.08" vaporized=""/>
    <tripinfo id="veh28" depart="13.00" departLane="40299271_1" departPos="24.19" departSpeed="0.00" departDelay="0.68" arrival="127.00" arrivalLane="43546379_1" arrivalPos="170.39" arrivalSpeed="14.42" duration="114.00" routeLength="1275.97" waitingTime="0.00" waitingCount="0" stopTime="0.00" timeLoss="25.05" rerouteNo="0" devices="tripinfo_veh28" vType="passenger" speedFactor="1.10" vaporized=""/>
    <tripinfo id="veh20" depart="9.00" departLane="354259933#3_1" departPos="43.85" departSpeed="0.00" departDelay="0.20" arrival="130.00" arrivalLane="578560104#6_1" arrivalPos="101.26" arrivalSpeed="15.29" duration="121.00" routeLength="1547.65" waitingTime="0.00" waitingCount="0" stopTime="0.00" timeLoss="18.72" rerouteNo="0" devices="tripinfo_veh20" vType="passenger" speedFactor="1.13" vaporized=""/>
    <tripinfo id="veh123" depart="55.00" departLane="48778485#0_1" departPos="14.10" departSpeed="0.00" departDelay="0.88" arrival="131.00" arrivalLane="-353939570#8_1" arrivalPos="84.62" arrivalSpeed="11.66" duration="76.00" routeLength="844.35" waitingTime="0.00" waitingCount="0" stopTime="0.00" timeLoss="12.74" rerouteNo="0" devices="tripinfo_veh123" vType="motorcycle" speedFactor="1.01" vaporized=""/>
    <personinfo id="ped0" depart="0.00" type="DEFAULT_PEDTYPE" speedFactor="1.03" duration="135.00" waitingTime="0.00" timeLoss="13.99" traveltime="135.00">
        <walk depart="0.00" departPos="0.00" arrival="135.00" arrivalPos="13.21" duration="135.00" routeLength="173.16" timeLoss="13.99" maxSpeed="1.43"/>
    </personinfo>
    <tripinfo id="veh154" depart="68.00" departLane="E41_1" departPos="33.94" departSpeed="0.00" departDelay="0.24" arrival="142.00" arrivalLane="75628811#1_2" arrivalPos="166.06" arrivalSpeed="15.82" duration="74.00" routeLength="577.49" waitingTime="21.00" waitingCount="1" stopTime="0.00" timeLoss="35.58" rerouteNo="0" devices="tripinfo_veh154" vType="passenger" speedFactor="1.15" vaporized=""/>
    <tripinfo id="veh54" depart="24.00" departLane="48736650#1_1" departPos="0.66" departSpeed="0.00" departDelay="0.24" arrival="143.00" arrivalLane="43547579#4_1" arrivalPos="247.27" arrivalSpeed="14.00" duration="119.00" routeLength="1413.67" waitingTime="2.00" waitingCount="1" stopTime="0.00" timeLoss="17.66" rerouteNo="0" devices="tripinfo_veh54" vType="passenger" speedFactor="1.02" vaporized=""/>
    <tripinfo id="veh164" depart="73.00" departLane="48778474#1_1" departPos="73.74" departSpeed="0.00" departDelay="0.84" arrival="143.00" arrivalLane="-256555440#1_1" arrivalPos="58.59" arrivalSpeed="9.99" duration="70.00" routeLength="555.63" waitingTime="0.00" waitingCount="0" stopTime="0.00" timeLoss="17.49" rerouteNo="0" devices="tripinfo_veh164" vType="passenger" speedFactor="0.80" vaporized=""/>
    <tripinfo id="veh111" depart="49.00" departLane="-671642290_1" departPos="4.60" departSpeed="0.00" departDelay="0.16" arrival="149.00" arrivalLane="-43544179#1_1" arrivalPos="36.35" arrivalSpeed="14.19" duration="100.00" routeLength="1280.19" waitingTime="0.00" waitingCount="0" stopTime="0.00" timeLoss="15.75" rerouteNo="0" devices="tripinfo_veh111" vType="passenger" speedFactor="1.11" vaporized=""/>
    <tripinfo id="veh163" depart="72.00" departLane="-48797768_1" departPos="88.53" departSpeed="0.00" departDelay="0.28" arrival="158.00" arrivalLane="-48736650#2_1" arrivalPos="16.21" arrivalSpeed="11.77" duration="86.00" routeLength="987.64" waitingTime="0.00" waitingCount="0" stopTime="0.00" timeLoss="12.84" rerouteNo="0" devices="tripinfo_veh163" vType="motorcycle" speedFactor="1.00" vaporized=""/>
    <tripinfo id="veh170" depart="75.00" departLane="-33909936#2_1" departPos="42.80" departSpeed="0.00" departDelay="0.20" arrival="160.00" arrivalLane="43573573#3_1" arrivalPos="71.51" arrivalSpeed="14.23" duration="85.00" routeLength="885.89" waitingTime="0.00" waitingCount="0" stopTime="0.00" timeLoss="18.29" rerouteNo="0" devices="tripinfo_veh170" vType="passenger" speedFactor="1.04" vaporized=""/>
    <tripinfo id="veh261" depart="115.00" departLane="48778461#0_1" departPos="11.80" departSpeed="0.00" departDelay="0.16" arrival="163.00" arrivalLane="647755347#1_1" arrivalPos="34.98" arrivalSpeed="12.17" duration="48.00" routeLength="386.09" waitingTime="0.00" waitingCount="0" stopTime="0.00" timeLoss="11.59" rerouteNo="0" devices="tripinfo_veh261" vType="passenger" speedFactor="0.90" vaporized=""/>
    <tripinfo id="veh134" depart="59.00" departLane="33913538#9_1" departPos="25.16" departSpeed="0.00" departDelay="0.04" arrival="165.00" arrivalLane="48778481#4_1" arrivalPos="195.74" arrivalSpeed="11.51" duration="106.00" routeLength="1027.76" waitingTime="11.00" waitingCount="1" stopTime="0.00" timeLoss="22.76" rerouteNo="0" devices="tripinfo_veh134" vType="passenger" speedFactor="0.90" vaporized=""/>
    <tripinfo id="veh34" depart="15.00" departLane="43573547#8_1" departPos="2.33" departSpeed="0.00" departDelay="0.04" arrival="167.00" arrivalLane="43546935#1_1" arrivalPos="51.34" arrivalSpeed="14.98" duration="152.00" routeLength="1884.17" waitingTime="0.00" waitingCount="0" stopTime="0.00" timeLoss="24.62" rerouteNo="0" devices="tripinfo_veh34" vType="passenger" speedFactor="1.09" vaporized=""/>
    <tripinfo id="veh12" depart="6.00" departLane="48736667_1" departPos="42.99" departSpeed="0.00" departDelay="0.72" arrival="168.00" arrivalLane="-996984133_1" arrivalPos="75.36" arrivalSpeed="7.65" duration="162.00" routeLength="1413.88" waitingTime="19.00" waitingCount="1" stopTime="0.00" timeLoss="47.95" rerouteNo="0" devices="tripinfo_veh12" vType="delivery" speedFactor="0.97" vaporized=""/>
    <tripinfo id="veh110" depart="49.00" departLane="383582511#1_0" departPos="0.87" departSpeed="0.00" departDelay="0.60" arrival="168.00" arrivalLane="40304754#4_1" arrivalPos="101.37" arrivalSpeed="13.83" duration="119.00" routeLength="1502.21" waitingTime="0.00" waitingCount="0" stopTime="0.00" timeLoss="12.53" rerouteNo="0" devices="tripinfo_veh110" vType="passenger" speedFactor="1.06" vaporized=""/>
    <personinfo id="ped4" depart="20.00" type="DEFAULT_PEDTYPE" speedFactor="0.99" duration="150.00" waitingTime="0.00" timeLoss="15.87" traveltime="150.00">
        <walk depart="20.00" departPos="0.00" arrival="170.00" arrivalPos="84.26" duration="150.00" routeLength="184.09" timeLoss="15.87" maxSpeed="1.37"/>
    </personinfo>
    <tripinfo id="veh82" depart="37.00" departLane="40265780#0_1" departPos="2.50" departSpeed="0.00" departDelay="0.92" arrival="171.00" arrivalLane="-273835686#1_1" arrivalPos="75.58" arrivalSpeed="14.30" duration="134.00" routeLength="1500.48" waitingTime="0.00" waitingCount="0" stopTime="0.00" timeLoss="23.92" rerouteNo="0" devices="tripinfo_veh82" vType="delivery" speedFactor="1.03" vaporized=""/>
    <tripinfo id="veh8" depart="4.00" departLane="222605084#8_1" departPos="1.55" departSpeed="0.00" departDelay="0.48" arrival="175.00" arrivalLane="48778519_1" arrivalPos="91.88" arrivalSpeed="15.32" duration="171.00" routeLength="1820.77" waitingTime="0.00" waitingCount="0" stopTime="0.00" timeLoss="33.33" rerouteNo="0" devices="tripinfo_veh8" vType="passenger" speedFactor="1.12" vaporized=""/>
    <tripinfo id="veh264" depart="117.00" departLane="-43546449#0_1" departPos="46.53" departSpeed="0.00" departDelay="0.84" arrival="178.00" arrivalLane="-383582497_0" arrivalPos="31.03" arrivalSpeed="3.00" duration="61.00" routeLength="513.81" waitingTime="0.00" waitingCount="0" stopTime="0.00" timeLoss="17.48" rerouteNo="0" devices="tripinfo_veh264" vType="passenger" speedFactor="1.16" vaporized=""/>
    <tripinfo id="veh32" depart="15.00" departLane="-43546935#2_1" departPos="28.41" departSpeed="0.00" departDelay="0.92" arrival="179.00" arrivalLane="-223883703_0" arrivalPos="83.93" arrivalSpeed="5.23" duration="164.00" routeLength="1497.33" waitingTime="15.00" waitingCount="1" stopTime="0.00" timeLoss="46.06" rerouteNo="0" devices="tripinfo_veh32" vType="passenger" speedFactor="1.04" vaporized=""/>
    <tripinfo id="veh155" depart="69.00" departLane="-48736645_1" departPos="91.82" departSpeed="0.00" departDelay="0.80" arrival="180.00" arrivalLane="-43546115_1" arrivalPos="162.45" arrivalSpeed="11.90" duration="111.00" routeLength="1150.48" waitingTime="0.00" waitingCount="0" stopTime="0.00" timeLoss="18.65" rerouteNo="0" devices="tripinfo_veh155" vType="delivery" speedFactor="0.94" vaporized=""/>
    <tripinfo id="veh191" depart="85.00" departLane="1136301812#1_1" departPos="6.05" departSpeed="0.00" departDelay="0.96" arrival="183.00" arrivalLane="-E11.41_1" arrivalPos="28.99" arrivalSpeed="13.16" duration="98.00" routeLength="1096.35" waitingTime="0.00" waitingCount="0" stopTime="0.00" timeLoss="15.18" rerouteNo="0" devices="tripinfo_veh191" vType="emergency" speedFactor="1.00" vaporized=""/>
    <tripinfo id="veh2" depart="1.00" departLane="1135772296#0_0" departPos="10.86" departSpeed="0.00" departDelay="0.12" arrival="185.00" arrivalLane="48736624#1_1" arrivalPos="65.19" arrivalSpeed="14.37" duration="184.00" routeLength="1506.62" waitingTime="37.00" waitingCount="2" stopTime="0.00" timeLoss="75.28" rerouteNo="0" devices="tripinfo_veh2" vType="passenger" speedFactor="1.08" vaporized=""/>
    <tripinfo id="veh175" depart="77.00" departLane="-671642291_1" departPos="41.96" departSpeed="0.00" departDelay="0.00" arrival="185.00" arrivalLane="43547256#0_1" arrivalPos="391.85" arrivalSpeed="13.95" duration="108.00" routeLength="1225.96" waitingTime="0.00" waitingCount="0" stopTime="0.00" timeLoss="17.96" rerouteNo="0" devices="tripinfo_veh175" vType="motorcycle" speedFactor="1.01" vaporized=""/>
    <tripinfo id="veh153" depart="68.00" departLane="-48778510#0_1" departPos="3.85" departSpeed="0.00" departDelay="0.68" arrival="188.00" arrivalLane="-43573478_1" arrivalPos="180.41" arrivalSpeed="12.77" duration="120.00" routeLength="1329.17" waitingTime="0.00" waitingCount="0" stopTime="0.00" timeLoss="20.00" rerouteNo="0" devices="tripinfo_veh153" vType="passenger" speedFactor="1.00" vaporized=""/>
    <tripinfo id="veh173" depart="77.00" departLane="-48736624#3_1" departPos="0.12" departSpeed="0.00" departDelay="0.88" arrival="188.00" arrivalLane="176279225#3_2" arrivalPos="13.07" arrivalSpeed="12.70" duration="111.00" routeLength="1084.99" waitingTime="6.00" waitingCount="1" stopTime="0.00" timeLoss="26.39" rerouteNo="0" devices="tripinfo_veh173" vType="passenger" speedFactor="0.96" vaporized=""/>
    <tripinfo id="veh79" depart="35.00" departLane="40236164_1" departPos="85.57" departSpeed="0.00" departDelay="0.24" arrival="189.00" arrivalLane="-354259933#0_1" arrivalPos="10.70" arrivalSpeed="14.91" duration="154.00" routeLength="1551.55" waitingTime="7.00" waitingCount="2" stopTime="0.00" timeLoss="46.78" rerouteNo="0" devices="tripinfo_veh79" vType="passenger" speedFactor="1.08" vaporized=""/>
    <tripinfo id="veh124" depart="55.00" departLane="-992542694_0" departPos="35.31" departSpeed="0.00" departDelay="0.44" arrival="191.00" arrivalLane="-40236144#3_1" arrivalPos="83.77" arrivalSpeed="11.53" duration="136.00" routeLength="628.65" waitingTime="46.00" waitingCount="5" stopTime="0.00" timeLoss="81.39" rerouteNo="0" devices="tripinfo_veh124" vType="passenger" speedFactor="0.91" vaporized=""/>
    <tripinfo id="veh194" depart="86.00" departLane="43573547#6_1" departPos="2.49" departSpeed="0.00" departDelay="0.64" arrival="191.00" arrivalLane="258551279_0" arrivalPos="179.06" arrivalSpeed="4.01" duration="105.00" routeLength="747.97" waitingTime="0.00" waitingCount="0" stopTime="0.00" timeLoss="16.79" rerouteNo="0" devices="tripinfo_veh194" vType="passenger" speedFactor="0.85" vaporized=""/>
    <tripinfo id="veh37" depart="17.00" departLane="353939570#5_2" departPos="15.01" departSpeed="0.00" departDelay="0.72" arrival="195.00" arrivalLane="273834906_1" arrivalPos="76.57" arrivalSpeed="14.16" duration="178.00" routeLength="1486.53" waitingTime="41.00" waitingCount="1" stopTime="0.00" timeLoss="72.48" rerouteNo="0" devices="tripinfo_veh37" vType="passenger" speedFactor="1.06" vaporized=""/>
    <tripinfo id="veh203" depart="90.00" departLane="-43573573#2_1" departPos="137.13" departSpeed="0.00" departDelay="0.68" arrival="195.00" arrivalLane="258551283#1_1" arrivalPos="55.98" arrivalSpeed="13.00" duration="105.00" routeLength="870.26" waitingTime="14.00" waitingCount="1" stopTime="0.00" timeLoss="35.74" rerouteNo="0" devices="tripinfo_veh203" vType="passenger" speedFactor="0.96" vaporized=""/>
    <tripinfo id="veh252" depart="111.00" departLane="945794107_1" departPos="85.37" departSpeed="0.00" departDelay="0.12" arrival="197.00" arrivalLane="-354259927_1" arrivalPos="310.58" arrivalSpeed="15.56" duration="86.00" routeLength="1215.68" waitingTime="0.00" waitingCount="0" stopTime="0.00" timeLoss="13.10" rerouteNo="0" devices="tripinfo_veh252" vType="passenger" speedFactor="1.13" vaporized=""/>
    <tripinfo id="veh244" depart="108.00" departLane="222609002#2_1" departPos="3.20" departSpeed="0.00" departDelay="0.64" arrival="199.00" arrivalLane="-48778516_1" arrivalPos="192.95" arrivalSpeed="14.08" duration="91.00" routeLength="1077.97" waitingTime="0.00" waitingCount="0" stopTime="0.00" timeLoss="13.84" rerouteNo="0" devices="tripinfo_veh244" vType="passenger" speedFactor="1.05" vaporized=""/>
    <tripinfo id="veh165" depart="73.00" departLane="48778473#1_1" departPos="5.33" departSpeed="0.00" departDelay="0.40" arrival="201.00" arrivalLane="-1136301812#0_1" arrivalPos="36.85" arrivalSpeed="12.85" duration="128.00" routeLength="949.31" waitingTime="25.00" waitingCount="1" stopTime="0.00" timeLoss="53.32" rerouteNo="0" devices="tripinfo_veh165" vType="passenger" speedFactor="0.98" vaporized=""/>
    <tripinfo id="veh232" depart="103.00" departLane="-48778510#0_1" departPos="4.66" departSpeed="0.00" departDelay="0.92" arrival="201.00" arrivalLane="-67712683_1" arrivalPos="77.22" arrivalSpeed="12.82" duration="98.00" routeLength="893.82" waitingTime="8.00" waitingCount="2" stopTime="0.00" timeLoss="29.70" rerouteNo="0" devices="tripinfo_veh232" vType="delivery" speedFactor="0.98" vaporized=""/>
    <tripinfo id="veh78" depart="35.00" departLane="222609002#3_1" departPos="9.79" departSpeed="0.00" departDelay="0.68" arrival="204.00" arrivalLane="-40330557#2_1" arrivalPos="99.94" arrivalSpeed="11.75" duration="169.00" routeLength="1464.87" waitingTime="16.00" waitingCount="3" stopTime="0.00" timeLoss="47.11" rerouteNo="0" devices="tripinfo_veh78" vType="passenger" speedFactor="0.89" vaporized=""/>
    <tripinfo id="veh185" depart="82.00" departLane="-43546109_1" departPos="89.93" departSpeed="0.00" departDelay="0.60" arrival="204.00" arrivalLane="-43573478_1" arrivalPos="180.41" arrivalSpeed="12.99" duration="122.00" routeLength="1183.73" waitingTime="4.00" waitingCount="1" stopTime="0.00" timeLoss="30.98" rerouteNo="0" devices="tripinfo_veh185" vType="delivery" speedFactor="0.99" vaporized=""/>
    <tripinfo id="veh206" depart="91.00" departLane="-40265774#0_1" departPos="3.06" departSpeed="0.00" departDelay="0.36" arrival="205.00" arrivalLane="43544179#6_1" arrivalPos="35.50" arrivalSpeed="15.12" duration="114.00" routeLength="1270.36" waitingTime="3.00" waitingCount="2" stopTime="0.00" timeLoss="29.74" rerouteNo="0" devices="tripinfo_veh206" vType="passenger" speedFactor="1.12" vaporized=""/>
    <tripinfo id="veh35" depart="16.00" departLane="1017995181_1" departPos="2.72" departSpeed="0.00" departDelay="0.60" arrival="206.00" arrivalLane="48736667_1" arrivalPos="133.52" arrivalSpeed="12.06" duration="190.00" routeLength="1643.44" waitingTime="31.00" waitingCount="4" stopTime="0.00" timeLoss="62.03" rerouteNo="0" devices="tripinfo_veh35" vType="passenger" speedFactor="0.95" vaporized=""/>
    <tripinfo id="veh99" depart="44.00" departLane="-945793485#0_1" departPos="1.42" departSpeed="0.00" departDelay="0.44" arrival="207.00" arrivalLane="33909936#3_1" arrivalPos="24.72" arrivalSpeed="13.61" duration="163.00" routeLength="1590.93" waitingTime="10.00" waitingCount="2" stopTime="0.00" timeLoss="44.15" rerouteNo="0" devices="tripinfo_veh99" vType="passenger" speedFactor="1.00" vaporized=""/>
    <tripinfo id="veh143" depart="63.00" departLane="492965073#9_1" departPos="22.92" departSpeed="0.00" departDelay="0.08" arrival="207.00" arrivalLane="48778493#2_1" arrivalPos="44.65" arrivalSpeed="12.27" duration="144.00" routeLength="1115.77" waitingTime="11.00" waitingCount="1" stopTime="0.00" timeLoss="56.44" rerouteNo="0" devices="tripinfo_veh143" vType="passenger" speedFactor="0.93" vaporized=""/>
    <tripinfo id="veh65" depart="29.00" departLane="470207092#0_1" departPos="179.00" departSpeed="0.00" departDelay="0.40" arrival="208.00" arrivalLane="-1250915726_1" arrivalPos="293.03" arrivalSpeed="4.81" duration="179.00" routeLength="1408.71" waitingTime="0.00" waitingCount="0" stopTime="0.00" timeLoss="25.29" rerouteNo="0" devices="tripinfo_veh65" vType="passenger" speedFactor="0.98" vaporized=""/>
    <tripinfo id="veh103" depart="46.00" departLane="48736620#2_1" departPos="19.31" departSpeed="0.00" departDelay="0.68" arrival="209.00" arrivalLane="-354259933#0_1" arrivalPos="10.70" arrivalSpeed="13.96" duration="163.00" routeLength="1970.64" waitingTime="6.00" waitingCount="1" stopTime="0.00" timeLoss="24.42" rerouteNo="0" devices="tripinfo_veh103" vType="passenger" speedFactor="1.03" vaporized=""/>
    <tripinfo id="veh288" depart="127.00" departLane="40236203#2_1" departPos="7.84" departSpeed="0.00" departDelay="0.28" arrival="209.00" arrivalLane="222609002#2_1" arrivalPos="15.40" arrivalSpeed="12.15" duration="82.00" routeLength="804.78" waitingTime="3.00" waitingCount="1" stopTime="0.00" timeLoss="19.23" rerouteNo="0" devices="tripinfo_veh288" vType="passenger" speedFactor="0.97" vaporized=""/>
    <tripinfo id="veh140" depart="62.00" departLane="40236144#3_1" departPos="26.90" departSpeed="0.00" departDelay="0.40" arrival="212.00" arrivalLane="-945793490#5_1" arrivalPos="110.67" arrivalSpeed="5.63" duration="150.00" routeLength="957.68" waitingTime="30.00" waitingCount="1" stopTime="0.00" timeLoss="60.70" rerouteNo="0" devices="tripinfo_veh140" vType="motorcycle" speedFactor="1.08" vaporized=""/>
    <tripinfo id="veh42" depart="19.00" departLane="48736619_1" departPos="25.34" departSpeed="0.00" departDelay="0.52" arrival="214.00" arrivalLane="40330557#0_1" arrivalPos="52.98" arrivalSpeed="13.43" duration="195.00" routeLength="1987.27" waitingTime="18.00" waitingCount="2" stopTime="0.00" timeLoss="49.42" rerouteNo="0" devices="tripinfo_veh42" vType="motorcycle" speedFactor="1.00" vaporized=""/>
    <tripinfo id="veh57" depart="26.00" departLane="48736620#0_1" departPos="17.34" departSpeed="0.00" departDelay="0.92" arrival="214.00" arrivalLane="-33909936#2_1" arrivalPos="60.97" arrivalSpeed="14.97" duration="188.00" routeLength="2244.71" waitingTime="14.00" waitingCount="1" stopTime="0.00" timeLoss="41.56" rerouteNo="0" devices="tripinfo_veh57" vType="passenger" speedFactor="1.12" vaporized=""/>
    <tripinfo id="veh293" depart="129.00" departLane="48778443#2_1" departPos="34.87" departSpeed="0.00" departDelay="0.08" arrival="214.00" arrivalLane="-40329447_1" arrivalPos="12.91" arrivalSpeed="12.22" duration="85.00" routeLength="913.17" waitingTime="0.00" waitingCount="0" stopTime="0.00" timeLoss="20.36" rerouteNo="0" devices="tripinfo_veh293" vType="motorcycle" speedFactor="1.12" vaporized=""/>
    <tripinfo id="veh1" depart="1.00" departLane="48736656#1_1" departPos="1.91" departSpeed="0.00" departDelay="0.56" arrival="216.00" arrivalLane="-250295382_1" arrivalPos="106.55" arrivalSpeed="14.77" duration="215.00" routeLength="1788.56" waitingTime="48.00" waitingCount="5" stopTime="0.00" timeLoss="92.88" rerouteNo="0" devices="tripinfo_veh1" vType="passenger" speedFactor="1.08" vaporized=""/>
    <tripinfo id="veh137" depart="61.00" departLane="-48736647#1_1" departPos="52.36" departSpeed="0.00" departDelay="0.72" arrival="216.00" arrivalLane="859728622_0" arrivalPos="319.42" arrivalSpeed="4.99" duration="155.00" routeLength="1131.13" waitingTime="7.00" waitingCount="1" stopTime="0.00" timeLoss="37.68" rerouteNo="0" devices="tripinfo_veh137" vType="motorcycle" speedFactor="1.02" vaporized=""/>
    <tripinfo id="veh215" depart="95.00" departLane="43546793_1" departPos="87.78" departSpeed="0.00" departDelay="0.40" arrival="217.00" arrivalLane="43545645#0_1" arrivalPos="209.85" arrivalSpeed="12.26" duration="122.00" routeLength="1333.44" waitingTime="0.00" waitingCount="0" stopTime="0.00" timeLoss="15.85" rerouteNo="0" devices="tripinfo_veh215" vType="delivery" speedFactor="0.93" vaporized=""/>
    <tripinfo id="veh105" depart="47.00" departLane="223883703_0" departPos="22.52" departSpeed="0.00" departDelay="0.80" arrival="218.00" arrivalLane="-996984134_0" arrivalPos="80.94" arrivalSpeed="4.67" duration="171.00" routeLength="1129.02" waitingTime="43.00" waitingCount="3" stopTime="0.00" timeLoss="73.91" rerouteNo="0" devices="tripinfo_veh105" vType="passenger" speedFactor="1.04" vaporized=""/>
    <tripinfo id="veh190" depart="84.00" departLane="40236203#2_1" departPos="5.92" departSpeed="0.00" departDelay="0.40" arrival="218.00" arrivalLane="-43547579#4_1" arrivalPos="251.60" arrivalSpeed="11.50" duration="134.00" routeLength="1138.27" waitingTime="19.00" waitingCount="2" stopTime="0.00" timeLoss="40.31" rerouteNo="0" devices="tripinfo_veh190" vType="passenger" speedFactor="0.89" vaporized=""/>
    <tripinfo id="veh330" depart="146.00" departLane="-48778524#1_1" departPos="17.93" departSpeed="0.00" departDelay="0.80" arrival="218.00" arrivalLane="-43544179#11_1" arrivalPos="85.20" arrivalSpeed="11.65" duration="72.00" routeLength="759.19" waitingTime="0.00" waitingCount="0" stopTime="0.00" timeLoss="10.69" rerouteNo="0" devices="tripinfo_veh330" vType="passenger" speedFactor="0.93" vaporized=""/>