<?xml version="1.0" encoding="UTF-8"?>

<!-- generated on 2025-06-15 22:16:38 by Eclipse SUMO sumo Version 1.22.0
<sumoConfiguration xmlns:xsi="http://www.w3.org/2001/XMLSchema-instance" xsi:noNamespaceSchemaLocation="http://sumo.dlr.de/xsd/sumoConfiguration.xsd">

    <input>
        <net-file value="E:/licenta/oras-mediu/2025-06-05-11-45-23\osm.net.xml"/>
        <route-files value="E:/licenta/oras-mediu/2025-06-05-11-45-23\full.rou.xml,E:/licenta/oras-mediu/2025-06-05-11-45-23\ ped.rou.xml,E:/licenta/oras-mediu/2025-06-05-11-45-23\ truck.rou.xml"/>
        <additional-files value="E:/licenta/oras-mediu/2025-06-05-11-45-23\osm.poly.xml,E:/licenta/oras-mediu/2025-06-05-11-45-23\ vtypes.xml"/>
    </input>

    <output>
        <summary-output value="E:/licenta/oras-mediu/2025-06-05-11-45-23\summary.xml"/>
        <tripinfo-output value="evaluation_run_outputs\baseline_outputs\tripinfo_baseline_ep14.xml"/>
    </output>

    <processing>
        <ignore-route-errors value="true"/>
        <tls.actuated.jam-threshold value="30"/>
    </processing>

    <routing>
        <device.rerouting.adaptation-steps value="18"/>
        <device.rerouting.adaptation-interval value="10"/>
    </routing>

    <report>
        <verbose value="true"/>
        <duration-log.statistics value="true"/>
        <no-step-log value="true"/>
    </report>

    <gui_only>
        <gui-settings-file value="E:/licenta/oras-mediu/2025-06-05-11-45-23\osm.view.xml"/>
    </gui_only>

</sumoConfiguration>
-->

<tripinfos xmlns:xsi="http://www.w3.org/2001/XMLSchema-instance" xsi:noNamespaceSchemaLocation="http://sumo.dlr.de/xsd/tripinfo_file.xsd">
    <tripinfo id="veh11" depart="9.00" departLane="-995053161_0" departPos="98.74" departSpeed="0.00" departDelay="0.97" arrival="41.00" arrivalLane="995053163#2_0" arrivalPos="132.51" arrivalSpeed="5.04" duration="32.00" routeLength="147.95" waitingTime="0.00" waitingCount="0" stopTime="0.00" timeLoss="4.50" rerouteNo="0" devices="tripinfo_veh11" vType="delivery" speedFactor="0.97" vaporized=""/>
    <tripinfo id="veh25" depart="19.00" departLane="43573478_1" departPos="61.15" departSpeed="0.00" departDelay="0.75" arrival="70.00" arrivalLane="-48778473#2_1" arrivalPos="37.09" arrivalSpeed="11.56" duration="51.00" routeLength="543.40" waitingTime="0.00" waitingCount="0" stopTime="0.00" timeLoss="11.16" rerouteNo="0" devices="tripinfo_veh25" vType="motorcycle" speedFactor="1.02" vaporized=""/>
    <tripinfo id="veh16" depart="12.00" departLane="-48736613#4_1" departPos="7.37" departSpeed="0.00" departDelay="0.32" arrival="73.00" arrivalLane="-1054663939_1" arrivalPos="21.68" arrivalSpeed="8.40" duration="61.00" routeLength="577.87" waitingTime="0.00" waitingCount="0" stopTime="0.00" timeLoss="14.03" rerouteNo="0" devices="tripinfo_veh16" vType="passenger" speedFactor="1.01" vaporized=""/>
    <tripinfo id="veh17" depart="13.00" departLane="-996984132_0" departPos="101.58" departSpeed="0.00" departDelay="0.59" arrival="75.00" arrivalLane="-48778495#1_1" arrivalPos="16.52" arrivalSpeed="7.05" duration="62.00" routeLength="516.38" waitingTime="0.00" waitingCount="0" stopTime="0.00" timeLoss="14.68" rerouteNo="0" devices="tripinfo_veh17" vType="passenger" speedFactor="0.87" vaporized=""/>
    <personinfo id="ped15" depart="75.00" type="DEFAULT_PEDTYPE" speedFactor="1.08" duration="9.00" waitingTime="0.00" timeLoss="0.90" traveltime="9.00">
        <walk depart="75.00" departPos="0.00" arrival="84.00" arrivalPos="12.21" duration="9.00" routeLength="12.21" timeLoss="0.90" maxSpeed="1.51"/>
    </personinfo>
    <tripinfo id="veh27" depart="20.00" departLane="-1136283379#1_1" departPos="2.48" departSpeed="0.00" departDelay="0.29" arrival="84.00" arrivalLane="48778494#0_1" arrivalPos="50.01" arrivalSpeed="15.03" duration="64.00" routeLength="679.86" waitingTime="0.00" waitingCount="0" stopTime="0.00" timeLoss="14.58" rerouteNo="0" devices="tripinfo_veh27" vType="passenger" speedFactor="1.10" vaporized=""/>
    <tripinfo id="veh102" depart="75.00" departLane="-258551321_1" departPos="68.70" departSpeed="0.00" departDelay="0.54" arrival="87.00" arrivalLane="-578560104#4_1" arrivalPos="13.09" arrivalSpeed="9.92" duration="12.00" routeLength="92.49" waitingTime="0.00" waitingCount="0" stopTime="0.00" timeLoss="4.73" rerouteNo="0" devices="tripinfo_veh102" vType="passenger" speedFactor="1.03" vaporized=""/>
    <tripinfo id="veh45" depart="33.00" departLane="-492965073#8_2" departPos="18.96" departSpeed="0.00" departDelay="0.15" arrival="91.00" arrivalLane="647762524_1" arrivalPos="48.75" arrivalSpeed="15.01" duration="58.00" routeLength="548.41" waitingTime="0.00" waitingCount="0" stopTime="0.00" timeLoss="18.92" rerouteNo="0" devices="tripinfo_veh45" vType="passenger" speedFactor="1.12" vaporized=""/>
    <tripinfo id="veh65" depart="48.00" departLane="48736610#1_1" departPos="0.05" departSpeed="0.00" departDelay="0.55" arrival="100.00" arrivalLane="48736612#3_1" arrivalPos="54.88" arrivalSpeed="13.12" duration="52.00" routeLength="430.42" waitingTime="4.00" waitingCount="1" stopTime="0.00" timeLoss="18.53" rerouteNo="0" devices="tripinfo_veh65" vType="passenger" speedFactor="1.01" vaporized=""/>
    <tripinfo id="veh80" depart="59.00" departLane="647741479_1" departPos="65.85" departSpeed="0.00" departDelay="0.60" arrival="111.00" arrivalLane="40236093_1" arrivalPos="79.24" arrivalSpeed="14.62" duration="52.00" routeLength="548.89" waitingTime="0.00" waitingCount="0" stopTime="0.00" timeLoss="14.01" rerouteNo="0" devices="tripinfo_veh80" vType="passenger" speedFactor="1.08" vaporized=""/>
    <tripinfo id="veh83" depart="61.00" departLane="-48736617#1_1" departPos="20.63" departSpeed="0.00" departDelay="0.41" arrival="112.00" arrivalLane="48736631_1" arrivalPos="82.80" arrivalSpeed="7.95" duration="51.00" routeLength="493.62" waitingTime="0.00" waitingCount="0" stopTime="0.00" timeLoss="10.62" rerouteNo="0" devices="tripinfo_veh83" vType="delivery" speedFactor="1.03" vaporized=""/>
    <tripinfo id="veh2" depart="2.00" departLane="92198453#1_1" departPos="9.45" departSpeed="0.00" departDelay="0.54" arrival="113.00" arrivalLane="-48797771#2_1" arrivalPos="26.22" arrivalSpeed="12.36" duration="111.00" routeLength="1348.58" waitingTime="0.00" waitingCount="0" stopTime="0.00" timeLoss="19.30" rerouteNo="0" devices="tripinfo_veh2" vType="passenger" speedFactor="1.08" vaporized=""/>
    <tripinfo id="veh33" depart="25.00" departLane="945794110_1" departPos="43.23" departSpeed="0.00" departDelay="0.91" arrival="119.00" arrivalLane="-945793490#2_1" arrivalPos="11.86" arrivalSpeed="5.94" duration="94.00" routeLength="962.11" waitingTime="0.00" waitingCount="0" stopTime="0.00" timeLoss="12.98" rerouteNo="0" devices="tripinfo_veh33" vType="passenger" speedFactor="1.09" vaporized=""/>
    <tripinfo id="veh54" depart="40.00" departLane="-48778517#1_1" departPos="17.92" departSpeed="0.00" departDelay="0.58" arrival="132.00" arrivalLane="-43544138#4_1" arrivalPos="45.15" arrivalSpeed="13.41" duration="92.00" routeLength="946.41" waitingTime="0.00" waitingCount="0" stopTime="0.00" timeLoss="20.55" rerouteNo="0" devices="tripinfo_veh54" vType="passenger" speedFactor="1.06" vaporized=""/>
    <tripinfo id="veh107" depart="79.00" departLane="-43573573#0_1" departPos="14.32" departSpeed="0.00" departDelay="0.89" arrival="134.00" arrivalLane="354259933#0_1" arrivalPos="10.70" arrivalSpeed="8.72" duration="55.00" routeLength="552.44" waitingTime="0.00" waitingCount="0" stopTime="0.00" timeLoss="11.90" rerouteNo="0" devices="tripinfo_veh107" vType="emergency" speedFactor="1.00" vaporized=""/>
    <tripinfo id="veh6" depart="5.00" departLane="40299739#2_1" departPos="29.10" departSpeed="0.00" departDelay="0.62" arrival="135.00" arrivalLane="-174818022#1_0" arrivalPos="93.09" arrivalSpeed="4.60" duration="130.00" routeLength="1069.69" waitingTime="0.00" waitingCount="0" stopTime="0.00" timeLoss="17.10" rerouteNo="0" devices="tripinfo_veh6" vType="passenger" speedFactor="0.92" vaporized=""/>
    <personinfo id="ped4" depart="20.00" type="DEFAULT_PEDTYPE" speedFactor="0.82" duration="116.00" waitingTime="0.00" timeLoss="11.58" traveltime="116.00">
        <walk depart="20.00" departPos="0.00" arrival="136.00" arrivalPos="7.46" duration="116.00" routeLength="119.21" timeLoss="11.58" maxSpeed="1.14"/>
    </personinfo>
    <tripinfo id="veh47" depart="35.00" departLane="353939570#5_1" departPos="14.15" departSpeed="0.00" departDelay="0.69" arrival="139.00" arrivalLane="-33909936#4_1" arrivalPos="15.04" arrivalSpeed="12.20" duration="104.00" routeLength="1206.68" waitingTime="0.00" waitingCount="0" stopTime="0.00" timeLoss="14.50" rerouteNo="0" devices="tripinfo_veh47" vType="delivery" speedFactor="0.99" vaporized=""/>
    <tripinfo id="veh58" depart="43.00" departLane="-43573573#4_1" departPos="15.90" departSpeed="0.00" departDelay="0.66" arrival="140.00" arrivalLane="143207979#8_1" arrivalPos="38.62" arrivalSpeed="15.03" duration="97.00" routeLength="1005.56" waitingTime="0.00" waitingCount="0" stopTime="0.00" timeLoss="25.63" rerouteNo="0" devices="tripinfo_veh58" vType="passenger" speedFactor="1.09" vaporized=""/>
    <tripinfo id="veh160" depart="117.00" departLane="-1250915720#4_1" departPos="13.33" departSpeed="0.00" departDelay="0.20" arrival="142.00" arrivalLane="1250915720#1_1" arrivalPos="5.08" arrivalSpeed="5.22" duration="25.00" routeLength="118.07" waitingTime="0.00" waitingCount="0" stopTime="0.00" timeLoss="3.62" rerouteNo="0" devices="tripinfo_veh160" vType="passenger" speedFactor="1.03" vaporized=""/>
    <tripinfo id="veh3" depart="3.00" departLane="48778443#2_1" departPos="28.06" departSpeed="0.00" departDelay="0.81" arrival="145.00" arrivalLane="-48797767#0_1" arrivalPos="21.72" arrivalSpeed="9.95" duration="142.00" routeLength="1182.54" waitingTime="13.00" waitingCount="1" stopTime="0.00" timeLoss="38.67" rerouteNo="0" devices="tripinfo_veh3" vType="passenger" speedFactor="0.94" vaporized=""/>
    <tripinfo id="veh10" depart="8.00" departLane="40236259_1" departPos="85.59" departSpeed="0.00" departDelay="0.70" arrival="146.00" arrivalLane="48778443#2_1" arrivalPos="37.75" arrivalSpeed="14.44" duration="138.00" routeLength="1121.96" waitingTime="19.00" waitingCount="1" stopTime="0.00" timeLoss="49.72" rerouteNo="0" devices="tripinfo_veh10" vType="passenger" speedFactor="1.04" vaporized=""/>
    <tripinfo id="veh149" depart="109.00" departLane="1250915724#1_1" departPos="15.81" departSpeed="0.00" departDelay="0.23" arrival="153.00" arrivalLane="-222605084#8_1" arrivalPos="2.30" arrivalSpeed="6.08" duration="44.00" routeLength="245.62" waitingTime="0.00" waitingCount="0" stopTime="0.00" timeLoss="6.13" rerouteNo="0" devices="tripinfo_veh149" vType="passenger" speedFactor="1.18" vaporized=""/>
    <tripinfo id="veh1" depart="1.00" departLane="-40236203#3_1" departPos="3.58" departSpeed="0.00" departDelay="0.27" arrival="156.00" arrivalLane="-43544197#0_1" arrivalPos="48.34" arrivalSpeed="14.01" duration="155.00" routeLength="2017.46" waitingTime="0.00" waitingCount="0" stopTime="0.00" timeLoss="18.61" rerouteNo="0" devices="tripinfo_veh1" vType="passenger" speedFactor="1.08" vaporized=""/>
    <tripinfo id="veh42" depart="31.00" departLane="-48778493#0_1" departPos="4.29" departSpeed="0.00" departDelay="0.34" arrival="161.00" arrivalLane="-43546039#3_1" arrivalPos="47.87" arrivalSpeed="13.24" duration="130.00" routeLength="1551.43" waitingTime="0.00" waitingCount="0" stopTime="0.00" timeLoss="13.41" rerouteNo="0" devices="tripinfo_veh42" vType="delivery" speedFactor="0.98" vaporized=""/>
    <tripinfo id="veh128" depart="94.00" departLane="40299739#3_1" departPos="42.31" departSpeed="0.00" departDelay="0.56" arrival="161.00" arrivalLane="1135854210_1" arrivalPos="13.11" arrivalSpeed="6.13" duration="67.00" routeLength="771.31" waitingTime="0.00" waitingCount="0" stopTime="0.00" timeLoss="13.39" rerouteNo="0" devices="tripinfo_veh128" vType="passenger" speedFactor="1.13" vaporized=""/>
    <tripinfo id="veh88" depart="65.00" departLane="48778464#1_1" departPos="4.56" departSpeed="0.00" departDelay="0.76" arrival="163.00" arrivalLane="-E12.34_1" arrivalPos="55.77" arrivalSpeed="12.32" duration="98.00" routeLength="1092.04" waitingTime="0.00" waitingCount="0" stopTime="0.00" timeLoss="15.18" rerouteNo="0" devices="tripinfo_veh88" vType="passenger" speedFactor="0.97" vaporized=""/>
    <tripinfo id="veh117" depart="86.00" departLane="-48778510#1_1" departPos="36.13" departSpeed="0.00" departDelay="0.59" arrival="168.00" arrivalLane="43546115_1" arrivalPos="162.45" arrivalSpeed="11.83" duration="82.00" routeLength="794.94" waitingTime="0.00" waitingCount="0" stopTime="0.00" timeLoss="17.41" rerouteNo="0" devices="tripinfo_veh117" vType="passenger" speedFactor="0.94" vaporized=""/>
    <tripinfo id="veh0" depart="0.00" departLane="-48778475#0_1" departPos="55.09" departSpeed="0.00" departDelay="0.00" arrival="169.00" arrivalLane="-48778495#0_1" arrivalPos="107.63" arrivalSpeed="6.69" duration="169.00" routeLength="1656.12" waitingTime="5.00" waitingCount="1" stopTime="0.00" timeLoss="35.06" rerouteNo="0" devices="tripinfo_veh0" vType="motorcycle" speedFactor="0.98" vaporized=""/>
    <tripinfo id="veh38" depart="28.00" departLane="984521612#1_0" departPos="17.21" departSpeed="0.00" departDelay="0.26" arrival="173.00" arrivalLane="-1136279381_1" arrivalPos="79.74" arrivalSpeed="8.29" duration="145.00" routeLength="1434.80" waitingTime="10.00" waitingCount="1" stopTime="0.00" timeLoss="30.90" rerouteNo="0" devices="tripinfo_veh38" vType="passenger" speedFactor="1.05" vaporized=""/>
    <tripinfo id="veh118" depart="87.00" departLane="43544179#8_1" departPos="34.74" departSpeed="0.00" departDelay="0.86" arrival="174.00" arrivalLane="-647347140#1_1" arrivalPos="28.09" arrivalSpeed="14.59" duration="87.00" routeLength="1039.50" waitingTime="0.00" waitingCount="0" stopTime="0.00" timeLoss="14.52" rerouteNo="0" devices="tripinfo_veh118" vType="passenger" speedFactor="1.07" vaporized=""/>
    <tripinfo id="veh35" depart="26.00" departLane="-289113877#0_1" departPos="228.62" departSpeed="0.00" departDelay="0.45" arrival="176.00" arrivalLane="258551279_0" arrivalPos="179.06" arrivalSpeed="4.75" duration="150.00" routeLength="1285.33" waitingTime="0.00" waitingCount="0" stopTime="0.00" timeLoss="19.25" rerouteNo="0" devices="tripinfo_veh35" vType="passenger" speedFactor="0.88" vaporized=""/>
    <tripinfo id="veh30" depart="22.00" departLane="33913538#9_1" departPos="11.97" departSpeed="0.00" departDelay="0.10" arrival="178.00" arrivalLane="48797769_1" arrivalPos="15.35" arrivalSpeed="10.01" duration="156.00" routeLength="1194.03" waitingTime="49.00" waitingCount="2" stopTime="0.00" timeLoss="72.04" rerouteNo="0" devices="tripinfo_veh30" vType="passenger" speedFactor="1.07" vaporized=""/>
    <tripinfo id="veh150" depart="110.00" departLane="-859732802#0_0" departPos="1.30" departSpeed="0.00" departDelay="0.50" arrival="184.00" arrivalLane="40266620_1" arrivalPos="32.51" arrivalSpeed="12.96" duration="74.00" routeLength="507.32" waitingTime="17.00" waitingCount="1" stopTime="0.00" timeLoss="32.21" rerouteNo="0" devices="tripinfo_veh150" vType="delivery" speedFactor="0.99" vaporized=""/>
    <tripinfo id="veh51" depart="38.00" departLane="-48778503#0_1" departPos="25.70" departSpeed="0.00" departDelay="0.77" arrival="186.00" arrivalLane="222605084#1_1" arrivalPos="0.36" arrivalSpeed="5.38" duration="148.00" routeLength="1140.06" waitingTime="29.00" waitingCount="1" stopTime="0.00" timeLoss="51.81" rerouteNo="0" devices="tripinfo_veh51" vType="passenger" speedFactor="1.02" vaporized=""/>
    <tripinfo id="veh139" depart="102.00" departLane="-48778503#1_1" departPos="42.04" departSpeed="0.00" departDelay="0.53" arrival="187.00" arrivalLane="-996984133_1" arrivalPos="75.36" arrivalSpeed="6.03" duration="85.00" routeLength="467.77" waitingTime="0.00" waitingCount="0" stopTime="0.00" timeLoss="7.29" rerouteNo="0" devices="tripinfo_veh139" vType="bicycle" speedFactor="1.09" vaporized=""/>
    <tripinfo id="veh20" depart="15.00" departLane="-40265774#1_2" departPos="29.66" departSpeed="0.00" departDelay="0.40" arrival="188.00" arrivalLane="48778527_1" arrivalPos="56.14" arrivalSpeed="12.27" duration="173.00" routeLength="1804.08" waitingTime="0.00" waitingCount="0" stopTime="0.00" timeLoss="22.03" rerouteNo="0" devices="tripinfo_veh20" vType="passenger" speedFactor="0.89" vaporized=""/>
    <tripinfo id="veh75" depart="55.00" departLane="-992542691_0" departPos="6.55" departSpeed="0.00" departDelay="0.25" arrival="190.00" arrivalLane="43573547#7_1" arrivalPos="83.95" arrivalSpeed="12.78" duration="135.00" routeLength="1263.96" waitingTime="17.00" waitingCount="1" stopTime="0.00" timeLoss="38.65" rerouteNo="0" devices="tripinfo_veh75" vType="emergency" speedFactor="1.00" vaporized=""/>
    <tripinfo id="veh132" depart="97.00" departLane="984521612#0_0" departPos="8.15" departSpeed="0.00" departDelay="0.64" arrival="190.00" arrivalLane="40269009#2_1" arrivalPos="65.05" arrivalSpeed="13.52" duration="93.00" routeLength="799.63" waitingTime="2.00" waitingCount="1" stopTime="0.00" timeLoss="26.44" rerouteNo="0" devices="tripinfo_veh132" vType="passenger" speedFactor="0.98" vaporized=""/>
    <tripinfo id="veh127" depart="93.00" departLane="-48778521#0_1" departPos="23.00" departSpeed="0.00" departDelay="0.29" arrival="198.00" arrivalLane="143207979#4_1" arrivalPos="45.53" arrivalSpeed="11.15" duration="105.00" routeLength="917.00" waitingTime="0.00" waitingCount="0" stopTime="0.00" timeLoss="14.16" rerouteNo="0" devices="tripinfo_veh127" vType="passenger" speedFactor="0.80" vaporized=""/>
    <tripinfo id="veh104" depart="76.00" departLane="-40334245#1_1" departPos="25.39" departSpeed="0.00" departDelay="0.08" arrival="199.00" arrivalLane="33909936#4_1" arrivalPos="15.05" arrivalSpeed="13.21" duration="123.00" routeLength="1542.89" waitingTime="0.00" waitingCount="0" stopTime="0.00" timeLoss="13.83" rerouteNo="0" devices="tripinfo_veh104" vType="passenger" speedFactor="1.04" vaporized=""/>
    <personinfo id="ped12" depart="60.00" type="DEFAULT_PEDTYPE" speedFactor="1.03" duration="140.00" waitingTime="0.00" timeLoss="13.80" traveltime="140.00">
        <walk depart="60.00" departPos="0.00" arrival="200.00" arrivalPos="12.41" duration="140.00" routeLength="181.37" timeLoss="13.80" maxSpeed="1.44"/>
    </personinfo>
    <tripinfo id="veh147" depart="108.00" departLane="43546064#0_1" departPos="84.57" departSpeed="0.00" departDelay="0.69" arrival="201.00" arrivalLane="-383582514_1" arrivalPos="205.28" arrivalSpeed="6.99" duration="93.00" routeLength="827.35" waitingTime="0.00" waitingCount="0" stopTime="0.00" timeLoss="14.15" rerouteNo="0" devices="tripinfo_veh147" vType="passenger" speedFactor="0.91" vaporized=""/>
    <tripinfo id="veh122" depart="90.00" departLane="-143207979#7_1" departPos="6.39" departSpeed="0.00" departDelay="0.94" arrival="202.00" arrivalLane="48778514#1_1" arrivalPos="264.87" arrivalSpeed="12.63" duration="112.00" routeLength="1098.19" waitingTime="2.00" waitingCount="1" stopTime="0.00" timeLoss="20.88" rerouteNo="0" devices="tripinfo_veh122" vType="passenger" speedFactor="0.91" vaporized=""/>
    <tripinfo id="veh109" depart="80.00" departLane="1205541342_1" departPos="7.85" departSpeed="0.00" departDelay="0.43" arrival="203.00" arrivalLane="-48778475#1_1" arrivalPos="25.99" arrivalSpeed="13.30" duration="123.00" routeLength="1310.02" waitingTime="3.00" waitingCount="1" stopTime="0.00" timeLoss="24.66" rerouteNo="0" devices="tripinfo_veh109" vType="passenger" speedFactor="1.06" vaporized=""/>
    <tripinfo id="veh138" depart="101.00" departLane="-578560104#5_1" departPos="33.77" departSpeed="0.00" departDelay="0.26" arrival="203.00" arrivalLane="-996984132_0" arrivalPos="105.31" arrivalSpeed="4.78" duration="102.00" routeLength="920.73" waitingTime="0.00" waitingCount="0" stopTime="0.00" timeLoss="22.39" rerouteNo="0" devices="tripinfo_veh138" vType="motorcycle" speedFactor="1.02" vaporized=""/>
    <tripinfo id="veh61" depart="45.00" departLane="48797767#1_1" departPos="11.41" departSpeed="0.00" departDelay="0.47" arrival="204.00" arrivalLane="40330557#0_1" arrivalPos="52.98" arrivalSpeed="13.44" duration="159.00" routeLength="1859.44" waitingTime="0.00" waitingCount="0" stopTime="0.00" timeLoss="23.40" rerouteNo="0" devices="tripinfo_veh61" vType="passenger" speedFactor="1.02" vaporized=""/>
    <tripinfo id="veh181" depart="133.00" departLane="-945793485#1_1" departPos="17.69" departSpeed="0.00" departDelay="0.87" arrival="208.00" arrivalLane="48778446#2_1" arrivalPos="11.20" arrivalSpeed="13.09" duration="75.00" routeLength="697.57" waitingTime="0.00" waitingCount="0" stopTime="0.00" timeLoss="23.96" rerouteNo="0" devices="tripinfo_veh181" vType="passenger" speedFactor="1.09" vaporized=""/>
    <tripinfo id="veh231" depart="169.00" departLane="-48736621#2_1" departPos="7.79" departSpeed="0.00" departDelay="0.37" arrival="209.00" arrivalLane="-647677163_1" arrivalPos="79.04" arrivalSpeed="14.35" duration="40.00" routeLength="400.94" waitingTime="0.00" waitingCount="0" stopTime="0.00" timeLoss="10.94" rerouteNo="0" devices="tripinfo_veh231" vType="passenger" speedFactor="1.10" vaporized=""/>
    <tripinfo id="veh84" depart="62.00" departLane="67712683_1" departPos="11.40" departSpeed="0.00" departDelay="0.68" arrival="211.00" arrivalLane="-92198453#6_1" arrivalPos="74.13" arrivalSpeed="16.08" duration="149.00" routeLength="1902.43" waitingTime="0.00" waitingCount="0" stopTime="0.00" timeLoss="34.40" rerouteNo="0" devices="tripinfo_veh84" vType="passenger" speedFactor="1.25" vaporized=""/>
    <personinfo id="ped34" depart="170.00" type="DEFAULT_PEDTYPE" speedFactor="1.08" duration="44.00" waitingTime="0.00" timeLoss="4.83" traveltime="44.00">
        <walk depart="170.00" departPos="0.00" arrival="214.00" arrivalPos="58.74" duration="44.00" routeLength="58.74" timeLoss="4.83" maxSpeed="1.50"/>
    </personinfo>
    <tripinfo id="veh114" depart="84.00" departLane="-143207982#3_1" departPos="9.99" departSpeed="0.00" departDelay="0.78" arrival="214.00" arrivalLane="848060815_1" arrivalPos="138.45" arrivalSpeed="11.63" duration="130.00" routeLength="1060.86" waitingTime="10.00" waitingCount="1" stopTime="0.00" timeLoss="41.01" rerouteNo="0" devices="tripinfo_veh114" vType="passenger" speedFactor="0.89" vaporized=""/>
    <tripinfo id="veh90" depart="66.00" departLane="-945793490#4_1" departPos="24.42" departSpeed="0.00" departDelay="0.30" arrival="223.00" arrivalLane="-33913538#1_1" arrivalPos="225.54" arrivalSpeed="14.98" duration="157.00" routeLength="1896.15" waitingTime="0.00" waitingCount="0" stopTime="0.00" timeLoss="15.56" rerouteNo="0" devices="tripinfo_veh90" vType="passenger" speedFactor="1.13" vaporized=""/>
    <tripinfo id="veh237" depart="174.00" departLane="258551284#0_1" departPos="68.60" departSpeed="0.00" departDelay="0.99" arrival="223.00" arrivalLane="222609002#3_1" arrivalPos="89.31" arrivalSpeed="14.32" duration="49.00" routeLength="586.79" waitingTime="0.00" waitingCount="0" stopTime="0.00" timeLoss="9.71" rerouteNo="0" devices="tripinfo_veh237" vType="passenger" speedFactor="1.10" vaporized=""/>
    <tripinfo id="veh70" depart="52.00" departLane="859732803#0_0" departPos="16.96" departSpeed="0.00" departDelay="0.90" arrival="228.00" arrivalLane="1232511776#0_1" arrivalPos="90.18" arrivalSpeed="10.86" duration="176.00" routeLength="1678.20" waitingTime="3.00" waitingCount="1" stopTime="0.00" timeLoss="27.11" rerouteNo="0" devices="tripinfo_veh70" vType="passenger" speedFactor="0.86" vaporized=""/>
    <tripinfo id="veh99" depart="73.00" departLane="48778508#3_1" departPos="2.04" departSpeed="0.00" departDelay="0.73" arrival="229.00" arrivalLane="-996489799#2_0" arrivalPos="59.30" arrivalSpeed="4.39" duration="156.00" routeLength="1486.74" waitingTime="5.00" waitingCount="1" stopTime="0.00" timeLoss="37.31" rerouteNo="0" devices="tripinfo_veh99" vType="passenger" speedFactor="1.00" vaporized=""/>
    <tripinfo id="veh15" depart="11.00" departLane="-40345956#3_1" departPos="0.80" departSpeed="0.00" departDelay="0.05" arrival="231.00" arrivalLane="143207979#2_1" arrivalPos="38.81" arrivalSpeed="11.27" duration="220.00" routeLength="2227.56" waitingTime="0.00" waitingCount="0" stopTime="0.00" timeLoss="30.60" rerouteNo="0" devices="tripinfo_veh15" vType="passenger" speedFactor="0.89" vaporized=""/>
    <tripinfo id="veh300" depart="219.00" departLane="984521612#0_0" departPos="2.11" departSpeed="0.00" departDelay="0.00" arrival="232.00" arrivalLane="984521611#1_0" arrivalPos="22.34" arrivalSpeed="4.66" duration="13.00" routeLength="50.73" waitingTime="0.00" waitingCount="0" stopTime="0.00" timeLoss="1.70" rerouteNo="0" devices="tripinfo_veh300" vType="passenger" speedFactor="0.87" vaporized=""/>
    <tripinfo id="veh78" depart="57.00" departLane="48778498#2_1" departPos="15.90" departSpeed="0.00" departDelay="0.06" arrival="233.00" arrivalLane="-222605084#7_1" arrivalPos="34.66" arrivalSpeed="4.66" duration="176.00" routeLength="1132.18" waitingTime="19.00" waitingCount="2" stopTime="0.00" timeLoss="49.92" rerouteNo="0" devices="tripinfo_veh78" vType="passenger" speedFactor="0.89" vaporized=""/>
    <tripinfo id="veh81" depart="60.00" departLane="E6_1" departPos="38.85" departSpeed="0.00" departDelay="0.87" arrival="233.00" arrivalLane="-40345956#2_1" arrivalPos="19.04" arrivalSpeed="13.27" duration="173.00" routeLength="1652.93" waitingTime="31.00" waitingCount="1" stopTime="0.00" timeLoss="53.30" rerouteNo="0" devices="tripinfo_veh81" vType="passenger" speedFactor="1.03" vaporized=""/>
    <tripinfo id="veh87" depart="64.00" departLane="-40314583#4_1" departPos="22.78" departSpeed="0.00" departDelay="0.49" arrival="233.00" arrivalLane="40295499#2_1" arrivalPos="18.87" arrivalSpeed="15.05" duration="169.00" routeLength="2220.39" waitingTime="0.00" waitingCount="0" stopTime="0.00" timeLoss="19.79" rerouteNo="0" devices="tripinfo_veh87" vType="passenger" speedFactor="1.10" vaporized=""/>
    <tripinfo id="veh68" depart="50.00" departLane="1250915724#1_1" departPos="55.42" departSpeed="0.00" departDelay="0.36" arrival="236.00" arrivalLane="-43544184#1_1" arrivalPos="0.22" arrivalSpeed="14.00" duration="186.00" routeLength="1813.02" waitingTime="12.00" waitingCount="1" stopTime="0.00" timeLoss="36.35" rerouteNo="0" devices="tripinfo_veh68" vType="passenger" speedFactor="1.05" vaporized=""/>
    <tripinfo id="veh221" depart="162.00" departLane="48736667_1" departPos="63.86" departSpeed="0.00" departDelay="0.67" arrival="237.00" arrivalLane="-33913538#8_2" arrivalPos="2.19" arrivalSpeed="11.18" duration="75.00" routeLength="620.22" waitingTime="5.00" waitingCount="2" stopTime="0.00" timeLoss="22.81" rerouteNo="0" devices="tripinfo_veh221" vType="passenger" speedFactor="0.88" vaporized=""/>
    <tripinfo id="veh64" depart="47.00" departLane="40265775#1_1" departPos="24.56" departSpeed="0.00" departDelay="0.28" arrival="239.00" arrivalLane="647998060#1_1" arrivalPos="57.23" arrivalSpeed="12.42" duration="192.00" routeLength="2136.85" waitingTime="0.00" waitingCount="0" stopTime="0.00" timeLoss="30.60" rerouteNo="0" devices="tripinfo_veh64" vType="passenger" speedFactor="0.98" vaporized=""/>
    <tripinfo id="veh264" depart="193.00" departLane="-647226815#0_1" departPos="25.46" departSpeed="0.00" departDelay="0.28" arrival="239.00" arrivalLane="-43544179#6_1" arrivalPos="35.50" arrivalSpeed="12.01" duration="46.00" routeLength="490.23" waitingTime="0.00" waitingCount="0" stopTime="0.00" timeLoss="7.23" rerouteNo="0" devices="tripinfo_veh264" vType="passenger" speedFactor="0.96" vaporized=""/>
    <tripinfo id="veh34" depart="25.00" departLane="43546460#11_1" departPos="1.03" departSpeed="0.00" departDelay="0.18" arrival="241.00" arrivalLane="222605085#2_1" arrivalPos="2.96" arrivalSpeed="13.10" duration="216.00" routeLength="2280.61" waitingTime="10.00" waitingCount="2" stopTime="0.00" timeLoss="39.35" rerouteNo="0" devices="tripinfo_veh34" vType="passenger" speedFactor="0.95" vaporized=""/>
    <tripinfo id="veh105" depart="77.00" departLane="-578560104#5_1" departPos="29.65" departSpeed="0.00" departDelay="0.35" arrival="242.00" arrivalLane="40265778#0_1" arrivalPos="145.00" arrivalSpeed="12.48" duration="165.00" routeLength="1581.89" waitingTime="20.00" waitingCount="2" stopTime="0.00" timeLoss="50.16" rerouteNo="0" devices="tripinfo_veh105" vType="motorcycle" speedFactor="1.04" vaporized=""/>
    <tripinfo id="veh69" depart="52.00" departLane="-48778524#0_1" departPos="32.32" departSpeed="0.00" departDelay="1.63" arrival="243.00" arrivalLane="-578560104#4_1" arrivalPos="13.09" arrivalSpeed="14.07" duration="191.00" routeLength="2217.86" waitingTime="0.00" waitingCount="0" stopTime="0.00" timeLoss="34.31" rerouteNo="0" devices="tripinfo_veh69" vType="passenger" speedFactor="1.06" vaporized=""/>
    <tripinfo id="veh29" depart="22.00" departLane="43544138#3_1" departPos="19.19" departSpeed="0.00" departDelay="0.83" arrival="244.00" arrivalLane="1250915722#0_1" arrivalPos="65.49" arrivalSpeed="4.79" duration="222.00" routeLength="2071.09" waitingTime="22.00" waitingCount="1" stopTime="0.00" timeLoss="52.36" rerouteNo="0" devices="tripinfo_veh29" vType="passenger" speedFactor="1.03" vaporized=""/>
    <tripinfo id="veh143" depart="105.00" departLane="40334244#1_1" departPos="33.62" departSpeed="0.00" departDelay="0.61" arrival="245.00" arrivalLane="48736624#2_1" arrivalPos="0.20" arrivalSpeed="6.93" duration="140.00" routeLength="1490.61" waitingTime="1.00" waitingCount="1" stopTime="0.00" timeLoss="27.15" rerouteNo="0" devices="tripinfo_veh143" vType="passenger" speedFactor="1.03" vaporized=""/>