<?xml version="1.0" encoding="UTF-8"?>

<!-- generated on 2025-06-15 21:43:19 by Eclipse SUMO sumo Version 1.22.0
<sumoConfiguration xmlns:xsi="http://www.w3.org/2001/XMLSchema-instance" xsi:noNamespaceSchemaLocation="http://sumo.dlr.de/xsd/sumoConfiguration.xsd">

    <input>
        <net-file value="E:/licenta/oras-mediu/2025-06-05-11-45-23\osm.net.xml"/>
        <route-files value="E:/licenta/oras-mediu/2025-06-05-11-45-23\full.rou.xml,E:/licenta/oras-mediu/2025-06-05-11-45-23\ ped.rou.xml,E:/licenta/oras-mediu/2025-06-05-11-45-23\ truck.rou.xml"/>
        <additional-files value="E:/licenta/oras-mediu/2025-06-05-11-45-23\osm.poly.xml,E:/licenta/oras-mediu/2025-06-05-11-45-23\ vtypes.xml"/>
    </input>

    <output>
        <summary-output value="E:/licenta/oras-mediu/2025-06-05-11-45-23\summary.xml"/>
        <tripinfo-output value="evaluation_run_outputs\baseline_outputs\tripinfo_baseline_ep6.xml"/>
    </output>

    <processing>
        <ignore-route-errors value="true"/>
        <tls.actuated.jam-threshold value="30"/>
    </processing>

    <routing>
        <device.rerouting.adaptation-steps value="18"/>
        <device.rerouting.adaptation-interval value="10"/>
    </routing>

    <report>
        <verbose value="true"/>
        <duration-log.statistics value="true"/>
        <no-step-log value="true"/>
    </report>

    <gui_only>
        <gui-settings-file value="E:/licenta/oras-mediu/2025-06-05-11-45-23\osm.view.xml"/>
    </gui_only>

</sumoConfiguration>
-->

<tripinfos xmlns:xsi="http://www.w3.org/2001/XMLSchema-instance" xsi:noNamespaceSchemaLocation="http://sumo.dlr.de/xsd/tripinfo_file.xsd">
    <personinfo id="ped4" depart="20.00" type="DEFAULT_PEDTYPE" speedFactor="0.95" duration="38.00" waitingTime="0.00" timeLoss="4.40" traveltime="38.00">
        <walk depart="20.00" departPos="0.00" arrival="58.00" arrivalPos="21.11" duration="38.00" routeLength="44.42" timeLoss="4.40" maxSpeed="1.32"/>
    </personinfo>
    <tripinfo id="veh19" depart="15.00" departLane="-859732803#1_0" departPos="21.21" departSpeed="0.00" departDelay="0.94" arrival="73.00" arrivalLane="984508805_0" arrivalPos="34.81" arrivalSpeed="6.05" duration="58.00" routeLength="487.37" waitingTime="0.00" waitingCount="0" stopTime="0.00" timeLoss="16.61" rerouteNo="0" devices="tripinfo_veh19" vType="passenger" speedFactor="1.13" vaporized=""/>
    <tripinfo id="veh27" depart="20.00" departLane="-48778475#2_1" departPos="12.58" departSpeed="0.00" departDelay="0.02" arrival="87.00" arrivalLane="1136301812#1_1" arrivalPos="9.56" arrivalSpeed="7.49" duration="67.00" routeLength="559.43" waitingTime="0.00" waitingCount="0" stopTime="0.00" timeLoss="18.64" rerouteNo="0" devices="tripinfo_veh27" vType="passenger" speedFactor="0.94" vaporized=""/>
    <personinfo id="ped10" depart="50.00" type="DEFAULT_PEDTYPE" speedFactor="0.93" duration="49.00" waitingTime="0.00" timeLoss="5.67" traveltime="49.00">
        <walk depart="50.00" departPos="0.00" arrival="99.00" arrivalPos="21.18" duration="49.00" routeLength="56.26" timeLoss="5.67" maxSpeed="1.30"/>
    </personinfo>
    <tripinfo id="veh86" depart="64.00" departLane="-945793490#4_1" departPos="29.92" departSpeed="0.00" departDelay="0.36" arrival="100.00" arrivalLane="-1251292610_1" arrivalPos="10.57" arrivalSpeed="4.32" duration="36.00" routeLength="149.14" waitingTime="0.00" waitingCount="0" stopTime="0.00" timeLoss="5.24" rerouteNo="0" devices="tripinfo_veh86" vType="passenger" speedFactor="0.89" vaporized=""/>
    <tripinfo id="veh24" depart="18.00" departLane="256684296_0" departPos="21.88" departSpeed="0.00" departDelay="0.24" arrival="101.00" arrivalLane="-48736638#2_1" arrivalPos="32.61" arrivalSpeed="11.63" duration="83.00" routeLength="603.21" waitingTime="0.00" waitingCount="0" stopTime="0.00" timeLoss="18.43" rerouteNo="0" devices="tripinfo_veh24" vType="passenger" speedFactor="0.97" vaporized=""/>
    <tripinfo id="veh67" depart="50.00" departLane="-33909936#4_1" departPos="4.12" departSpeed="0.00" departDelay="0.42" arrival="103.00" arrivalLane="-383582508#0_0" arrivalPos="10.60" arrivalSpeed="4.92" duration="53.00" routeLength="484.07" waitingTime="0.00" waitingCount="0" stopTime="0.00" timeLoss="9.83" rerouteNo="0" devices="tripinfo_veh67" vType="passenger" speedFactor="1.02" vaporized=""/>
    <tripinfo id="veh34" depart="26.00" departLane="-43546688#1_1" departPos="7.26" departSpeed="0.00" departDelay="0.84" arrival="110.00" arrivalLane="40306162#1_1" arrivalPos="38.73" arrivalSpeed="13.98" duration="84.00" routeLength="918.27" waitingTime="0.00" waitingCount="0" stopTime="0.00" timeLoss="17.23" rerouteNo="0" devices="tripinfo_veh34" vType="passenger" speedFactor="1.07" vaporized=""/>
    <tripinfo id="veh81" depart="60.00" departLane="-492965073#9_2" departPos="27.12" departSpeed="0.00" departDelay="0.06" arrival="119.00" arrivalLane="-48797765#2_1" arrivalPos="18.86" arrivalSpeed="11.17" duration="59.00" routeLength="572.01" waitingTime="2.00" waitingCount="1" stopTime="0.00" timeLoss="20.10" rerouteNo="0" devices="tripinfo_veh81" vType="passenger" speedFactor="1.14" vaporized=""/>
    <tripinfo id="veh102" depart="76.00" departLane="48778474#0_1" departPos="3.64" departSpeed="0.00" departDelay="0.52" arrival="138.00" arrivalLane="984521613_0" arrivalPos="62.42" arrivalSpeed="5.30" duration="62.00" routeLength="456.36" waitingTime="0.00" waitingCount="0" stopTime="0.00" timeLoss="12.26" rerouteNo="0" devices="tripinfo_veh102" vType="passenger" speedFactor="1.03" vaporized=""/>
    <tripinfo id="veh70" depart="52.00" departLane="-354259933#0_1" departPos="10.60" departSpeed="0.00" departDelay="0.20" arrival="140.00" arrivalLane="1250915722#2_1" arrivalPos="3.43" arrivalSpeed="5.23" duration="88.00" routeLength="713.48" waitingTime="0.00" waitingCount="0" stopTime="0.00" timeLoss="10.11" rerouteNo="0" devices="tripinfo_veh70" vType="passenger" speedFactor="0.98" vaporized=""/>
    <tripinfo id="veh61" depart="46.00" departLane="-43573547#5_1" departPos="47.68" departSpeed="0.00" departDelay="0.86" arrival="155.00" arrivalLane="143207979#2_1" arrivalPos="38.81" arrivalSpeed="13.76" duration="109.00" routeLength="1199.48" waitingTime="0.00" waitingCount="0" stopTime="0.00" timeLoss="22.71" rerouteNo="0" devices="tripinfo_veh61" vType="passenger" speedFactor="1.06" vaporized=""/>
    <tripinfo id="veh129" depart="97.00" departLane="-222605087#2_1" departPos="1.53" departSpeed="0.00" departDelay="1.54" arrival="158.00" arrivalLane="-1251292611_1" arrivalPos="3.48" arrivalSpeed="5.29" duration="61.00" routeLength="347.64" waitingTime="0.00" waitingCount="0" stopTime="0.00" timeLoss="11.55" rerouteNo="0" devices="tripinfo_veh129" vType="passenger" speedFactor="1.18" vaporized=""/>
    <tripinfo id="veh39" depart="29.00" departLane="143207979#3_1" departPos="22.78" departSpeed="0.00" departDelay="0.14" arrival="161.00" arrivalLane="1137794254_2" arrivalPos="26.75" arrivalSpeed="12.76" duration="132.00" routeLength="1381.02" waitingTime="0.00" waitingCount="0" stopTime="0.00" timeLoss="21.82" rerouteNo="0" devices="tripinfo_veh39" vType="passenger" speedFactor="0.95" vaporized=""/>
    <tripinfo id="veh66" depart="49.00" departLane="-48778514#1_1" departPos="180.12" departSpeed="0.00" departDelay="0.16" arrival="162.00" arrivalLane="67736383_1" arrivalPos="44.81" arrivalSpeed="12.09" duration="113.00" routeLength="1153.73" waitingTime="0.00" waitingCount="0" stopTime="0.00" timeLoss="16.37" rerouteNo="0" devices="tripinfo_veh66" vType="passenger" speedFactor="0.90" vaporized=""/>
    <tripinfo id="veh10" depart="8.00" departLane="43546460#4_1" departPos="133.99" departSpeed="0.00" departDelay="0.60" arrival="165.00" arrivalLane="251916699#2.34_1" arrivalPos="28.37" arrivalSpeed="14.12" duration="157.00" routeLength="1790.95" waitingTime="0.00" waitingCount="0" stopTime="0.00" timeLoss="20.57" rerouteNo="0" devices="tripinfo_veh10" vType="passenger" speedFactor="1.04" vaporized=""/>
    <tripinfo id="veh162" depart="120.00" departLane="-48778521#1_1" departPos="12.32" departSpeed="0.00" departDelay="0.12" arrival="171.00" arrivalLane="43544138#5_1" arrivalPos="39.45" arrivalSpeed="13.77" duration="51.00" routeLength="427.51" waitingTime="0.00" waitingCount="0" stopTime="0.00" timeLoss="11.22" rerouteNo="0" devices="tripinfo_veh162" vType="passenger" speedFactor="1.00" vaporized=""/>
    <personinfo id="ped12" depart="60.00" type="DEFAULT_PEDTYPE" speedFactor="0.89" duration="112.00" waitingTime="0.00" timeLoss="11.88" traveltime="112.00">
        <walk depart="60.00" departPos="0.00" arrival="172.00" arrivalPos="22.14" duration="112.00" routeLength="123.76" timeLoss="11.88" maxSpeed="1.24"/>
    </personinfo>
    <tripinfo id="veh12" depart="9.00" departLane="-48736614#1_1" departPos="140.24" departSpeed="0.00" departDelay="0.12" arrival="172.00" arrivalLane="48778441#0_1" arrivalPos="38.64" arrivalSpeed="12.93" duration="163.00" routeLength="1351.77" waitingTime="23.00" waitingCount="3" stopTime="0.00" timeLoss="60.22" rerouteNo="0" devices="tripinfo_veh12" vType="emergency" speedFactor="1.00" vaporized=""/>
    <tripinfo id="veh21" depart="16.00" departLane="354250407#1_2" departPos="57.27" departSpeed="0.00" departDelay="0.46" arrival="175.00" arrivalLane="-354259933#3_1" arrivalPos="60.32" arrivalSpeed="15.75" duration="159.00" routeLength="1761.91" waitingTime="21.00" waitingCount="2" stopTime="0.00" timeLoss="47.44" rerouteNo="0" devices="tripinfo_veh21" vType="passenger" speedFactor="1.15" vaporized=""/>
    <tripinfo id="veh5" depart="4.00" departLane="222609002#4_1" departPos="28.52" departSpeed="0.00" departDelay="0.30" arrival="176.00" arrivalLane="647998060#0_1" arrivalPos="61.50" arrivalSpeed="11.73" duration="172.00" routeLength="1697.02" waitingTime="0.00" waitingCount="0" stopTime="0.00" timeLoss="31.41" rerouteNo="0" devices="tripinfo_veh5" vType="passenger" speedFactor="0.92" vaporized=""/>
    <tripinfo id="veh49" depart="37.00" departLane="176279225#4_1" departPos="59.18" departSpeed="0.00" departDelay="0.74" arrival="177.00" arrivalLane="1136283361_0" arrivalPos="47.88" arrivalSpeed="4.94" duration="140.00" routeLength="1341.93" waitingTime="5.00" waitingCount="2" stopTime="0.00" timeLoss="31.56" rerouteNo="0" devices="tripinfo_veh49" vType="passenger" speedFactor="1.00" vaporized=""/>
    <tripinfo id="veh145" depart="108.00" departLane="-48778453_1" departPos="4.79" departSpeed="0.00" departDelay="0.70" arrival="177.00" arrivalLane="40266909#0_1" arrivalPos="56.72" arrivalSpeed="12.90" duration="69.00" routeLength="687.29" waitingTime="0.00" waitingCount="0" stopTime="0.00" timeLoss="15.30" rerouteNo="0" devices="tripinfo_veh145" vType="passenger" speedFactor="0.96" vaporized=""/>
    <tripinfo id="veh112" depart="83.00" departLane="1135854143_1" departPos="39.93" departSpeed="0.00" departDelay="0.12" arrival="179.00" arrivalLane="-48736620#5_1" arrivalPos="11.94" arrivalSpeed="13.29" duration="96.00" routeLength="875.64" waitingTime="12.00" waitingCount="1" stopTime="0.00" timeLoss="30.71" rerouteNo="0" devices="tripinfo_veh112" vType="motorcycle" speedFactor="1.04" vaporized=""/>
    <tripinfo id="veh42" depart="32.00" departLane="222605084#0_1" departPos="0.14" departSpeed="0.00" departDelay="0.92" arrival="184.00" arrivalLane="-996984132_0" arrivalPos="105.31" arrivalSpeed="6.49" duration="152.00" routeLength="1189.72" waitingTime="11.00" waitingCount="1" stopTime="0.00" timeLoss="42.36" rerouteNo="0" devices="tripinfo_veh42" vType="passenger" speedFactor="1.17" vaporized=""/>
    <tripinfo id="veh26" depart="20.00" departLane="-48778446#1_1" departPos="9.50" departSpeed="0.00" departDelay="0.76" arrival="190.00" arrivalLane="-48736632#1_1" arrivalPos="49.82" arrivalSpeed="11.29" duration="170.00" routeLength="1248.03" waitingTime="53.00" waitingCount="2" stopTime="0.00" timeLoss="79.07" rerouteNo="0" devices="tripinfo_veh26" vType="motorcycle" speedFactor="1.02" vaporized=""/>
    <tripinfo id="veh4" depart="3.00" departLane="859726677#0_1" departPos="30.64" departSpeed="0.00" departDelay="0.04" arrival="197.00" arrivalLane="1378376381_1" arrivalPos="160.13" arrivalSpeed="14.26" duration="194.00" routeLength="2480.35" waitingTime="0.00" waitingCount="0" stopTime="0.00" timeLoss="24.60" rerouteNo="0" devices="tripinfo_veh4" vType="passenger" speedFactor="1.09" vaporized=""/>
    <tripinfo id="veh3" depart="3.00" departLane="-1136279388_0" departPos="1.46" departSpeed="0.00" departDelay="0.78" arrival="198.00" arrivalLane="48778493#1_1" arrivalPos="26.41" arrivalSpeed="13.14" duration="195.00" routeLength="2037.68" waitingTime="13.00" waitingCount="2" stopTime="0.00" timeLoss="42.47" rerouteNo="0" devices="tripinfo_veh3" vType="passenger" speedFactor="1.01" vaporized=""/>
    <tripinfo id="veh130" depart="97.00" departLane="43544184#4_1" departPos="14.08" departSpeed="0.00" departDelay="0.80" arrival="201.00" arrivalLane="-354259933#3_1" arrivalPos="60.32" arrivalSpeed="11.02" duration="104.00" routeLength="1094.27" waitingTime="0.00" waitingCount="0" stopTime="0.00" timeLoss="20.47" rerouteNo="0" devices="tripinfo_veh130" vType="motorcycle" speedFactor="1.01" vaporized=""/>
    <tripinfo id="veh36" depart="27.00" departLane="859728205_0" departPos="9.42" departSpeed="0.00" departDelay="0.36" arrival="207.00" arrivalLane="-48797765#0_1" arrivalPos="17.81" arrivalSpeed="10.65" duration="180.00" routeLength="1182.63" waitingTime="58.00" waitingCount="2" stopTime="0.00" timeLoss="83.78" rerouteNo="0" devices="tripinfo_veh36" vType="emergency" speedFactor="1.00" vaporized=""/>
    <tripinfo id="veh84" depart="63.00" departLane="43573547#1_1" departPos="0.59" departSpeed="0.00" departDelay="0.84" arrival="208.00" arrivalLane="1250915720#0_1" arrivalPos="2.68" arrivalSpeed="5.30" duration="145.00" routeLength="1138.31" waitingTime="15.00" waitingCount="3" stopTime="0.00" timeLoss="45.23" rerouteNo="0" devices="tripinfo_veh84" vType="delivery" speedFactor="0.98" vaporized=""/>
    <tripinfo id="veh96" depart="72.00" departLane="43573547#5_1" departPos="55.35" departSpeed="0.00" departDelay="0.96" arrival="213.00" arrivalLane="1136301811_1" arrivalPos="31.32" arrivalSpeed="7.78" duration="141.00" routeLength="1260.32" waitingTime="17.00" waitingCount="1" stopTime="0.00" timeLoss="40.99" rerouteNo="0" devices="tripinfo_veh96" vType="passenger" speedFactor="0.97" vaporized=""/>
    <tripinfo id="veh140" depart="104.00" departLane="647762524_1" departPos="19.08" departSpeed="0.00" departDelay="0.40" arrival="213.00" arrivalLane="470210923#1_1" arrivalPos="159.45" arrivalSpeed="11.32" duration="109.00" routeLength="597.87" waitingTime="47.00" waitingCount="1" stopTime="0.00" timeLoss="59.30" rerouteNo="0" devices="tripinfo_veh140" vType="passenger" speedFactor="0.87" vaporized=""/>
    <tripinfo id="veh260" depart="193.00" departLane="-48778508#0_1" departPos="3.27" departSpeed="0.00" departDelay="0.60" arrival="214.00" arrivalLane="48778494#1_1" arrivalPos="15.92" arrivalSpeed="10.79" duration="21.00" routeLength="191.59" waitingTime="0.00" waitingCount="0" stopTime="0.00" timeLoss="6.73" rerouteNo="0" devices="tripinfo_veh260" vType="passenger" speedFactor="1.02" vaporized=""/>
    <tripinfo id="veh1" depart="1.00" departLane="-43547256#0_1" departPos="281.13" departSpeed="0.00" departDelay="0.26" arrival="216.00" arrivalLane="-40304754#5_1" arrivalPos="153.81" arrivalSpeed="12.19" duration="215.00" routeLength="2305.94" waitingTime="0.00" waitingCount="0" stopTime="0.00" timeLoss="37.81" rerouteNo="0" devices="tripinfo_veh1" vType="motorcycle" speedFactor="0.98" vaporized=""/>
    <tripinfo id="veh71" depart="53.00" departLane="222609004#1_1" departPos="0.84" departSpeed="0.00" departDelay="0.46" arrival="218.00" arrivalLane="-647226814#1_1" arrivalPos="38.44" arrivalSpeed="13.55" duration="165.00" routeLength="1846.07" waitingTime="0.00" waitingCount="0" stopTime="0.00" timeLoss="26.73" rerouteNo="0" devices="tripinfo_veh71" vType="passenger" speedFactor="1.01" vaporized=""/>
    <tripinfo id="veh13" depart="10.00" departLane="43546789#0_1" departPos="13.01" departSpeed="0.00" departDelay="0.38" arrival="219.00" arrivalLane="-40330575#0_1" arrivalPos="31.85" arrivalSpeed="13.54" duration="209.00" routeLength="2037.77" waitingTime="14.00" waitingCount="3" stopTime="0.00" timeLoss="59.06" rerouteNo="0" devices="tripinfo_veh13" vType="passenger" speedFactor="1.02" vaporized=""/>
    <tripinfo id="veh104" depart="77.00" departLane="-43546519#2_1" departPos="6.21" departSpeed="0.00" departDelay="0.04" arrival="220.00" arrivalLane="-1135772296#0_0" arrivalPos="22.09" arrivalSpeed="4.65" duration="143.00" routeLength="1133.24" waitingTime="16.00" waitingCount="2" stopTime="0.00" timeLoss="41.01" rerouteNo="0" devices="tripinfo_veh104" vType="passenger" speedFactor="0.89" vaporized=""/>
    <tripinfo id="veh6" depart="5.00" departLane="43546460#9_1" departPos="0.31" departSpeed="0.00" departDelay="0.56" arrival="223.00" arrivalLane="48736644_1" arrivalPos="151.25" arrivalSpeed="14.72" duration="218.00" routeLength="1937.52" waitingTime="60.00" waitingCount="1" stopTime="0.00" timeLoss="90.21" rerouteNo="0" devices="tripinfo_veh6" vType="passenger" speedFactor="1.12" vaporized=""/>
    <tripinfo id="veh64" depart="48.00" departLane="383582853_0" departPos="3.85" departSpeed="0.00" departDelay="0.64" arrival="223.00" arrivalLane="40309190_1" arrivalPos="61.38" arrivalSpeed="12.28" duration="175.00" routeLength="1792.49" waitingTime="9.00" waitingCount="1" stopTime="0.00" timeLoss="27.58" rerouteNo="0" devices="tripinfo_veh64" vType="passenger" speedFactor="0.92" vaporized=""/>
    <tripinfo id="veh217" depart="161.00" departLane="-48778525#2_1" departPos="101.74" departSpeed="0.00" departDelay="0.42" arrival="225.00" arrivalLane="48778527_1" arrivalPos="56.14" arrivalSpeed="13.27" duration="64.00" routeLength="675.83" waitingTime="0.00" waitingCount="0" stopTime="0.00" timeLoss="13.05" rerouteNo="0" devices="tripinfo_veh217" vType="passenger" speedFactor="1.01" vaporized=""/>
    <tripinfo id="veh16" depart="12.00" departLane="48778481#9_2" departPos="9.18" departSpeed="0.00" departDelay="0.16" arrival="227.00" arrivalLane="-223883702_1" arrivalPos="271.06" arrivalSpeed="13.78" duration="215.00" routeLength="2504.03" waitingTime="3.00" waitingCount="2" stopTime="0.00" timeLoss="33.01" rerouteNo="0" devices="tripinfo_veh16" vType="passenger" speedFactor="1.01" vaporized=""/>
    <tripinfo id="veh121" depart="90.00" departLane="-1136301811_1" departPos="9.22" departSpeed="0.00" departDelay="0.46" arrival="228.00" arrivalLane="48736640#1_1" arrivalPos="66.91" arrivalSpeed="14.76" duration="138.00" routeLength="1187.32" waitingTime="19.00" waitingCount="1" stopTime="0.00" timeLoss="51.01" rerouteNo="0" devices="tripinfo_veh121" vType="delivery" speedFactor="1.06" vaporized=""/>
    <tripinfo id="veh267" depart="198.00" departLane="48736638#1_1" departPos="87.94" departSpeed="0.00" departDelay="0.42" arrival="229.00" arrivalLane="48736640#0_1" arrivalPos="55.87" arrivalSpeed="14.92" duration="31.00" routeLength="308.77" waitingTime="0.00" waitingCount="0" stopTime="0.00" timeLoss="9.12" rerouteNo="0" devices="tripinfo_veh267" vType="passenger" speedFactor="1.09" vaporized=""/>
    <tripinfo id="veh122" depart="91.00" departLane="-43546343#0_1" departPos="94.70" departSpeed="0.00" departDelay="0.72" arrival="231.00" arrivalLane="48736607#0_1" arrivalPos="36.67" arrivalSpeed="14.90" duration="140.00" routeLength="1416.05" waitingTime="28.00" waitingCount="1" stopTime="0.00" timeLoss="52.72" rerouteNo="0" devices="tripinfo_veh122" vType="passenger" speedFactor="1.21" vaporized=""/>
    <tripinfo id="veh68" depart="51.00" departLane="48736622#1_1" departPos="0.11" departSpeed="0.00" departDelay="0.68" arrival="234.00" arrivalLane="-1135855898_0" arrivalPos="54.52" arrivalSpeed="5.32" duration="183.00" routeLength="1994.52" waitingTime="9.00" waitingCount="1" stopTime="0.00" timeLoss="40.65" rerouteNo="0" devices="tripinfo_veh68" vType="passenger" speedFactor="1.08" vaporized=""/>
    <tripinfo id="veh90" depart="67.00" departLane="-258551321_1" departPos="53.95" departSpeed="0.00" departDelay="0.40" arrival="234.00" arrivalLane="-40334244#3_1" arrivalPos="176.10" arrivalSpeed="14.06" duration="167.00" routeLength="1609.21" waitingTime="22.00" waitingCount="1" stopTime="0.00" timeLoss="49.72" rerouteNo="0" devices="tripinfo_veh90" vType="delivery" speedFactor="1.03" vaporized=""/>
    <tripinfo id="veh174" depart="129.00" departLane="48778481#8_1" departPos="1.14" departSpeed="0.00" departDelay="0.24" arrival="236.00" arrivalLane="-353939570#10_1" arrivalPos="344.65" arrivalSpeed="14.60" duration="107.00" routeLength="1355.91" waitingTime="0.00" waitingCount="0" stopTime="0.00" timeLoss="13.54" rerouteNo="0" devices="tripinfo_veh174" vType="passenger" speedFactor="1.07" vaporized=""/>
    <tripinfo id="veh59" depart="44.00" departLane="-578560104#5_1" departPos="23.14" departSpeed="0.00" departDelay="0.34" arrival="238.00" arrivalLane="176279225#2_1" arrivalPos="97.77" arrivalSpeed="13.75" duration="194.00" routeLength="1474.97" waitingTime="48.00" waitingCount="1" stopTime="0.00" timeLoss="71.35" rerouteNo="0" devices="tripinfo_veh59" vType="passenger" speedFactor="1.02" vaporized=""/>
    <tripinfo id="veh228" depart="169.00" departLane="250295383#3_1" departPos="1.36" departSpeed="0.00" departDelay="0.28" arrival="238.00" arrivalLane="-48797772_1" arrivalPos="103.62" arrivalSpeed="12.87" duration="69.00" routeLength="550.62" waitingTime="4.00" waitingCount="2" stopTime="0.00" timeLoss="24.67" rerouteNo="0" devices="tripinfo_veh228" vType="delivery" speedFactor="0.93" vaporized=""/>
    <tripinfo id="veh115" depart="86.00" departLane="-92198453#4_1" departPos="37.80" departSpeed="0.00" departDelay="0.90" arrival="243.00" arrivalLane="43544001#1_1" arrivalPos="24.62" arrivalSpeed="12.63" duration="157.00" routeLength="1864.14" waitingTime="3.00" waitingCount="1" stopTime="0.00" timeLoss="23.25" rerouteNo="0" devices="tripinfo_veh115" vType="passenger" speedFactor="1.02" vaporized=""/>
    <personinfo id="ped24" depart="120.00" type="DEFAULT_PEDTYPE" speedFactor="0.82" duration="126.00" waitingTime="0.00" timeLoss="13.51" traveltime="126.00">
        <walk depart="120.00" departPos="0.00" arrival="246.00" arrivalPos="13.53" duration="126.00" routeLength="128.43" timeLoss="13.51" maxSpeed="1.14"/>
    </personinfo>
    <tripinfo id="veh54" depart="40.00" departLane="40334244#2_1" departPos="1.23" departSpeed="0.00" departDelay="0.04" arrival="246.00" arrivalLane="258551321_1" arrivalPos="124.63" arrivalSpeed="12.07" duration="206.00" routeLength="1671.14" waitingTime="41.00" waitingCount="2" stopTime="0.00" timeLoss="67.64" rerouteNo="0" devices="tripinfo_veh54" vType="passenger" speedFactor="0.91" vaporized=""/>
    <tripinfo id="veh44" depart="33.00" departLane="-984521611#0_0" departPos="2.38" departSpeed="0.00" departDelay="0.44" arrival="247.00" arrivalLane="43544179#11_1" arrivalPos="85.20" arrivalSpeed="11.98" duration="214.00" routeLength="2309.32" waitingTime="0.00" waitingCount="0" stopTime="0.00" timeLoss="40.85" rerouteNo="0" devices="tripinfo_veh44" vType="motorcycle" speedFactor="1.00" vaporized=""/>
    <tripinfo id="veh209" depart="155.00" departLane="1135854143_1" departPos="29.36" departSpeed="0.00" departDelay="0.34" arrival="247.00" arrivalLane="E26_2" arrivalPos="166.60" arrivalSpeed="14.28" duration="92.00" routeLength="784.77" waitingTime="14.00" waitingCount="1" stopTime="0.00" timeLoss="33.22" rerouteNo="0" devices="tripinfo_veh209" vType="motorcycle" speedFactor="1.04" vaporized=""/>
    <tripinfo id="veh218" depart="162.00" departLane="647262856_1" departPos="384.22" departSpeed="0.00" departDelay="0.68" arrival="247.00" arrivalLane="48778431#10_1" arrivalPos="349.08" arrivalSpeed="14.70" duration="85.00" routeLength="1114.49" waitingTime="0.00" waitingCount="0" stopTime="0.00" timeLoss="10.96" rerouteNo="0" devices="tripinfo_veh218" vType="passenger" speedFactor="1.12" vaporized=""/>
    <tripinfo id="veh82" depart="61.00" departLane="222605084#1_1" departPos="0.35" departSpeed="0.00" departDelay="0.32" arrival="250.00" arrivalLane="-1136284448_1" arrivalPos="34.50" arrivalSpeed="9.03" duration="189.00" routeLength="1303.29" waitingTime="34.00" waitingCount="4" stopTime="0.00" timeLoss="73.99" rerouteNo="0" devices="tripinfo_veh82" vType="passenger" speedFactor="1.10" vaporized=""/>
    <tripinfo id="veh268" depart="199.00" departLane="-40330592_1" departPos="42.13" departSpeed="0.00" departDelay="0.68" arrival="252.00" arrivalLane="-1250915720#6_1" arrivalPos="63.36" arrivalSpeed="6.07" duration="53.00" routeLength="451.31" waitingTime="0.00" waitingCount="0" stopTime="0.00" timeLoss="15.62" rerouteNo="0" devices="tripinfo_veh268" vType="passenger" speedFactor="1.13" vaporized=""/>
    <tripinfo id="veh31" depart="23.00" departLane="1135772296#0_0" departPos="21.58" departSpeed="0.00" departDelay="0.06" arrival="255.00" arrivalLane="-40306162#1_1" arrivalPos="43.20" arrivalSpeed="4.05" duration="232.00" routeLength="978.11" waitingTime="0.00" waitingCount="0" stopTime="0.00" timeLoss="20.77" rerouteNo="0" devices="tripinfo_veh31" vType="bicycle" speedFactor="0.83" vaporized=""/>
    <tripinfo id="veh47" depart="35.00" departLane="647741479_1" departPos="59.63" departSpeed="0.00" departDelay="0.22" arrival="255.00" arrivalLane="-43547296#0_1" arrivalPos="163.38" arrivalSpeed="12.37" duration="220.00" routeLength="1604.83" waitingTime="65.00" waitingCount="2" stopTime="0.00" timeLoss="97.35" rerouteNo="0" devices="tripinfo_veh47" vType="delivery" speedFactor="0.98" vaporized=""/>
    <tripinfo id="veh206" depart="153.00" departLane="-1136119743#1_1" departPos="19.80" departSpeed="0.00" departDelay="0.56" arrival="255.00" arrivalLane="-1250915721#0_1" arrivalPos="14.93" arrivalSpeed="3.50" duration="102.00" routeLength="554.55" waitingTime="1.00" waitingCount="1" stopTime="0.00" timeLoss="17.93" rerouteNo="0" devices="tripinfo_veh206" vType="passenger" speedFactor="0.85" vaporized=""/>
    <tripinfo id="veh89" depart="66.00" departLane="-48778461#0_1" departPos="36.81" departSpeed="0.00" departDelay="0.14" arrival="256.00" arrivalLane="984508802_0" arrivalPos="57.38" arrivalSpeed="5.06" duration="190.00" routeLength="1392.10" waitingTime="0.00" waitingCount="0" stopTime="0.00" timeLoss="67.49" rerouteNo="0" devices="tripinfo_veh89" vType="passenger" speedFactor="0.98" vaporized=""/>
    <tripinfo id="veh125" depart="93.00" departLane="40345956#3_1" departPos="0.85" departSpeed="0.00" departDelay="0.50" arrival="256.00" arrivalLane="-48736612#3_1" arrivalPos="54.88" arrivalSpeed="13.71" duration="163.00" routeLength="1830.28" waitingTime="0.00" waitingCount="0" stopTime="0.00" timeLoss="23.85" rerouteNo="0" devices="tripinfo_veh125" vType="motorcycle" speedFactor="1.04" vaporized=""/>
    <tripinfo id="veh233" depart="173.00" departLane="1250915721#1_1" departPos="0.05" departSpeed="0.00" departDelay="0.58" arrival="256.00" arrivalLane="353939570#10_1" arrivalPos="350.36" arrivalSpeed="12.61" duration="83.00" routeLength="707.52" waitingTime="0.00" waitingCount="0" stopTime="0.00" timeLoss="9.17" rerouteNo="0" devices="tripinfo_veh233" vType="passenger" speedFactor="0.95" vaporized=""/>
    <personinfo id="ped8" depart="40.00" type="DEFAULT_PEDTYPE" speedFactor="1.02" duration="218.00" waitingTime="0.00" timeLoss="22.25" traveltime="218.00">
        <walk depart="40.00" departPos="0.00" arrival="258.00" arrivalPos="31.68" duration="218.00" routeLength="277.91" timeLoss="22.25" maxSpeed="1.42"/>
    </personinfo>
    <tripinfo id="veh17" depart="13.00" departLane="40330575#2_1" departPos="7.70" departSpeed="0.00" departDelay="0.42" arrival="259.00" arrivalLane="647998060#0_1" arrivalPos="61.50" arrivalSpeed="10.86" duration="246.00" routeLength="2553.92" waitingTime="2.00" waitingCount="1" stopTime="0.00" timeLoss="30.81" rerouteNo="0" devices="tripinfo_veh17" vType="passenger" speedFactor="0.87" vaporized=""/>
    <tripinfo id="veh114" depart="85.00" departLane="48778429#3_1" departPos="138.54" departSpeed="0.00" departDelay="0.64" arrival="259.00" arrivalLane="48736646#1_1" arrivalPos="161.98" arrivalSpeed="13.20" duration="174.00" routeLength="2165.44" waitingTime="0.00" waitingCount="0" stopTime="0.00" timeLoss="16.10" rerouteNo="0" devices="tripinfo_veh114" vType="emergency" speedFactor="1.00" vaporized=""/>
    <personinfo id="ped3" depart="15.00" type="DEFAULT_PEDTYPE" speedFactor="0.93" duration="247.00" waitingTime="0.00" timeLoss="26.45" traveltime="247.00">
        <walk depart="15.00" departPos="0.00" arrival="262.00" arrivalPos="17.45" duration="247.00" routeLength="283.50" timeLoss="26.45" maxSpeed="1.29"/>
    </personinfo>
    <personinfo id="ped38" depart="190.00" type="DEFAULT_PEDTYPE" speedFactor="0.95" duration="73.00" waitingTime="0.00" timeLoss="7.75" traveltime="73.00">
        <walk depart="190.00" departPos="0.00" arrival="263.00" arrivalPos="22.80" duration="73.00" routeLength="86.02" timeLoss="7.75" maxSpeed="1.32"/>
    </personinfo>
    <tripinfo id="veh28" depart="21.00" departLane="48778475#1_1" departPos="7.54" departSpeed="0.00" departDelay="0.28" arrival="265.00" arrivalLane="176279225#2_1" arrivalPos="97.77" arrivalSpeed="14.43" duration="244.00" routeLength="1904.94" waitingTime="69.00" waitingCount="1" stopTime="0.00" timeLoss="100.80" rerouteNo="0" devices="tripinfo_veh28" vType="passenger" speedFactor="1.10" vaporized=""/>
    <tripinfo id="veh37" depart="28.00" departLane="48778508#2_1" departPos="0.59" departSpeed="0.00" departDelay="0.62" arrival="266.00" arrivalLane="-48778461#1_1" arrivalPos="23.84" arrivalSpeed="12.14" duration="238.00" routeLength="2100.05" waitingTime="50.00" waitingCount="1" stopTime="0.00" timeLoss="91.07" rerouteNo="0" devices="tripinfo_veh37" vType="passenger" speedFactor="1.09" vaporized=""/>