<?xml version="1.0" encoding="UTF-8"?>

<!-- generated on 2025-06-15 22:26:17 by Eclipse SUMO sumo Version 1.22.0
<sumoConfiguration xmlns:xsi="http://www.w3.org/2001/XMLSchema-instance" xsi:noNamespaceSchemaLocation="http://sumo.dlr.de/xsd/sumoConfiguration.xsd">

    <input>
        <net-file value="E:/licenta/oras-mediu/2025-06-05-11-45-23\osm.net.xml"/>
        <route-files value="E:/licenta/oras-mediu/2025-06-05-11-45-23\full.rou.xml,E:/licenta/oras-mediu/2025-06-05-11-45-23\ ped.rou.xml,E:/licenta/oras-mediu/2025-06-05-11-45-23\ truck.rou.xml"/>
        <additional-files value="E:/licenta/oras-mediu/2025-06-05-11-45-23\osm.poly.xml,E:/licenta/oras-mediu/2025-06-05-11-45-23\ vtypes.xml"/>
    </input>

    <output>
        <summary-output value="E:/licenta/oras-mediu/2025-06-05-11-45-23\summary.xml"/>
        <tripinfo-output value="evaluation_run_outputs\baseline_outputs\tripinfo_baseline_ep17.xml"/>
    </output>

    <processing>
        <ignore-route-errors value="true"/>
        <tls.actuated.jam-threshold value="30"/>
    </processing>

    <routing>
        <device.rerouting.adaptation-steps value="18"/>
        <device.rerouting.adaptation-interval value="10"/>
    </routing>

    <report>
        <verbose value="true"/>
        <duration-log.statistics value="true"/>
        <no-step-log value="true"/>
    </report>

    <gui_only>
        <gui-settings-file value="E:/licenta/oras-mediu/2025-06-05-11-45-23\osm.view.xml"/>
    </gui_only>

</sumoConfiguration>
-->

<tripinfos xmlns:xsi="http://www.w3.org/2001/XMLSchema-instance" xsi:noNamespaceSchemaLocation="http://sumo.dlr.de/xsd/tripinfo_file.xsd">
    <tripinfo id="veh19" depart="15.00" departLane="-48778525#0_1" departPos="40.54" departSpeed="0.00" departDelay="0.75" arrival="30.00" arrivalLane="671642291_1" arrivalPos="61.56" arrivalSpeed="15.36" duration="15.00" routeLength="124.37" waitingTime="0.00" waitingCount="0" stopTime="0.00" timeLoss="4.98" rerouteNo="0" devices="tripinfo_veh19" vType="passenger" speedFactor="1.13" vaporized=""/>
    <tripinfo id="veh8" depart="6.00" departLane="43573478_1" departPos="81.56" departSpeed="0.00" departDelay="0.00" arrival="51.00" arrivalLane="48736645_1" arrivalPos="132.12" arrivalSpeed="12.06" duration="45.00" routeLength="402.74" waitingTime="0.00" waitingCount="0" stopTime="0.00" timeLoss="10.32" rerouteNo="0" devices="tripinfo_veh8" vType="passenger" speedFactor="0.90" vaporized=""/>
    <tripinfo id="veh60" depart="45.00" departLane="48778498#1_1" departPos="17.53" departSpeed="0.00" departDelay="0.00" arrival="59.00" arrivalLane="-996984133_1" arrivalPos="75.36" arrivalSpeed="7.71" duration="14.00" routeLength="96.20" waitingTime="0.00" waitingCount="0" stopTime="0.00" timeLoss="2.99" rerouteNo="0" devices="tripinfo_veh60" vType="passenger" speedFactor="1.03" vaporized=""/>
    <tripinfo id="veh6" depart="5.00" departLane="-48778510#1_1" departPos="67.37" departSpeed="0.00" departDelay="0.50" arrival="84.00" arrivalLane="-222609004#0_1" arrivalPos="31.40" arrivalSpeed="11.67" duration="79.00" routeLength="785.58" waitingTime="0.00" waitingCount="0" stopTime="0.00" timeLoss="13.99" rerouteNo="0" devices="tripinfo_veh6" vType="passenger" speedFactor="0.92" vaporized=""/>
    <tripinfo id="veh3" depart="3.00" departLane="383582518#0_0" departPos="2.36" departSpeed="0.00" departDelay="0.75" arrival="106.00" arrivalLane="-48778505#1_1" arrivalPos="53.40" arrivalSpeed="13.64" duration="103.00" routeLength="1074.22" waitingTime="0.00" waitingCount="0" stopTime="0.00" timeLoss="16.05" rerouteNo="0" devices="tripinfo_veh3" vType="passenger" speedFactor="1.01" vaporized=""/>
    <personinfo id="ped16" depart="80.00" type="DEFAULT_PEDTYPE" speedFactor="1.00" duration="28.00" waitingTime="0.00" timeLoss="2.70" traveltime="28.00">
        <walk depart="80.00" departPos="0.00" arrival="108.00" arrivalPos="30.00" duration="28.00" routeLength="35.12" timeLoss="2.70" maxSpeed="1.39"/>
    </personinfo>
    <tripinfo id="veh109" depart="82.00" departLane="48736620#2_1" departPos="71.13" departSpeed="0.00" departDelay="0.25" arrival="111.00" arrivalLane="48736633_1" arrivalPos="247.41" arrivalSpeed="13.82" duration="29.00" routeLength="340.96" waitingTime="0.00" waitingCount="0" stopTime="0.00" timeLoss="4.95" rerouteNo="0" devices="tripinfo_veh109" vType="passenger" speedFactor="1.04" vaporized=""/>
    <personinfo id="ped8" depart="40.00" type="DEFAULT_PEDTYPE" speedFactor="1.18" duration="84.00" waitingTime="0.00" timeLoss="10.41" traveltime="84.00">
        <walk depart="40.00" departPos="0.00" arrival="124.00" arrivalPos="21.07" duration="84.00" routeLength="121.05" timeLoss="10.41" maxSpeed="1.64"/>
    </personinfo>
    <personinfo id="ped22" depart="110.00" type="DEFAULT_PEDTYPE" speedFactor="1.13" duration="26.00" waitingTime="0.00" timeLoss="2.54" traveltime="26.00">
        <walk depart="110.00" departPos="0.00" arrival="136.00" arrivalPos="13.57" duration="26.00" routeLength="36.93" timeLoss="2.54" maxSpeed="1.57"/>
    </personinfo>
    <tripinfo id="veh37" depart="28.00" departLane="-250295383#3_1" departPos="1.84" departSpeed="0.00" departDelay="0.25" arrival="148.00" arrivalLane="48797765#1_1" arrivalPos="28.98" arrivalSpeed="7.08" duration="120.00" routeLength="1001.34" waitingTime="5.00" waitingCount="1" stopTime="0.00" timeLoss="32.28" rerouteNo="0" devices="tripinfo_veh37" vType="passenger" speedFactor="0.88" vaporized=""/>
    <tripinfo id="veh29" depart="22.00" departLane="43544001#14_1" departPos="23.51" departSpeed="0.00" departDelay="0.25" arrival="150.00" arrivalLane="-43544197#4_1" arrivalPos="41.55" arrivalSpeed="14.33" duration="128.00" routeLength="1093.32" waitingTime="29.00" waitingCount="1" stopTime="0.00" timeLoss="52.24" rerouteNo="0" devices="tripinfo_veh29" vType="passenger" speedFactor="1.10" vaporized=""/>
    <tripinfo id="veh5" depart="4.00" departLane="48778519_1" departPos="22.74" departSpeed="0.00" departDelay="0.25" arrival="152.00" arrivalLane="43547256#0_1" arrivalPos="391.85" arrivalSpeed="14.11" duration="148.00" routeLength="1914.18" waitingTime="0.00" waitingCount="0" stopTime="0.00" timeLoss="18.90" rerouteNo="0" devices="tripinfo_veh5" vType="passenger" speedFactor="1.09" vaporized=""/>
    <tripinfo id="veh78" depart="59.00" departLane="-43544624#0_1" departPos="150.84" departSpeed="0.00" departDelay="0.50" arrival="154.00" arrivalLane="-40265775#0_1" arrivalPos="76.55" arrivalSpeed="13.37" duration="95.00" routeLength="1104.67" waitingTime="0.00" waitingCount="0" stopTime="0.00" timeLoss="14.44" rerouteNo="0" devices="tripinfo_veh78" vType="emergency" speedFactor="1.00" vaporized=""/>
    <tripinfo id="veh24" depart="18.00" departLane="383582497_0" departPos="0.86" departSpeed="0.00" departDelay="0.00" arrival="161.00" arrivalLane="E37_1" arrivalPos="64.97" arrivalSpeed="13.34" duration="143.00" routeLength="1325.37" waitingTime="15.00" waitingCount="1" stopTime="0.00" timeLoss="36.23" rerouteNo="0" devices="tripinfo_veh24" vType="passenger" speedFactor="0.99" vaporized=""/>
    <tripinfo id="veh72" depart="54.00" departLane="-1136289992_1" departPos="14.31" departSpeed="0.00" departDelay="0.00" arrival="168.00" arrivalLane="996486454#1_1" arrivalPos="99.11" arrivalSpeed="13.78" duration="114.00" routeLength="1197.14" waitingTime="0.00" waitingCount="0" stopTime="0.00" timeLoss="26.78" rerouteNo="0" devices="tripinfo_veh72" vType="passenger" speedFactor="1.06" vaporized=""/>
    <tripinfo id="veh20" depart="15.00" departLane="48778441#0_1" departPos="3.44" departSpeed="0.00" departDelay="0.00" arrival="176.00" arrivalLane="-40334245#1_1" arrivalPos="44.55" arrivalSpeed="12.38" duration="161.00" routeLength="1428.55" waitingTime="11.00" waitingCount="3" stopTime="0.00" timeLoss="41.77" rerouteNo="0" devices="tripinfo_veh20" vType="passenger" speedFactor="0.89" vaporized=""/>
    <tripinfo id="veh57" depart="43.00" departLane="-40236203#2_1" departPos="5.26" departSpeed="0.00" departDelay="0.25" arrival="177.00" arrivalLane="-43547256#0_1" arrivalPos="394.57" arrivalSpeed="13.85" duration="134.00" routeLength="1685.06" waitingTime="0.00" waitingCount="0" stopTime="0.00" timeLoss="17.18" rerouteNo="0" devices="tripinfo_veh57" vType="passenger" speedFactor="1.06" vaporized=""/>
    <tripinfo id="veh63" depart="48.00" departLane="-945793491#0_1" departPos="0.27" departSpeed="0.00" departDelay="0.75" arrival="177.00" arrivalLane="-223883703_0" arrivalPos="83.93" arrivalSpeed="4.42" duration="129.00" routeLength="1014.93" waitingTime="0.00" waitingCount="0" stopTime="0.00" timeLoss="13.61" rerouteNo="0" devices="tripinfo_veh63" vType="passenger" speedFactor="0.90" vaporized=""/>
    <tripinfo id="veh1" depart="1.00" departLane="383582519_0" departPos="60.33" departSpeed="0.00" departDelay="0.25" arrival="183.00" arrivalLane="40295499#4_1" arrivalPos="354.14" arrivalSpeed="11.27" duration="182.00" routeLength="2054.87" waitingTime="0.00" waitingCount="0" stopTime="0.00" timeLoss="24.89" rerouteNo="0" devices="tripinfo_veh1" vType="motorcycle" speedFactor="0.98" vaporized=""/>
    <tripinfo id="veh54" depart="41.00" departLane="-43544624#3_1" departPos="55.52" departSpeed="0.00" departDelay="0.50" arrival="183.00" arrivalLane="-1136284448_1" arrivalPos="34.50" arrivalSpeed="7.67" duration="142.00" routeLength="1449.37" waitingTime="4.00" waitingCount="1" stopTime="0.00" timeLoss="26.78" rerouteNo="0" devices="tripinfo_veh54" vType="passenger" speedFactor="0.95" vaporized=""/>
    <tripinfo id="veh102" depart="77.00" departLane="-48778503#0_1" departPos="7.72" departSpeed="0.00" departDelay="0.50" arrival="184.00" arrivalLane="48736648#0_0" arrivalPos="0.20" arrivalSpeed="4.67" duration="107.00" routeLength="1127.89" waitingTime="0.00" waitingCount="0" stopTime="0.00" timeLoss="11.97" rerouteNo="0" devices="tripinfo_veh102" vType="passenger" speedFactor="0.89" vaporized=""/>
    <tripinfo id="veh138" depart="104.00" departLane="-289113801_1" departPos="118.83" departSpeed="0.00" departDelay="0.50" arrival="184.00" arrivalLane="-223883702_1" arrivalPos="271.06" arrivalSpeed="15.17" duration="80.00" routeLength="1071.70" waitingTime="0.00" waitingCount="0" stopTime="0.00" timeLoss="9.94" rerouteNo="0" devices="tripinfo_veh138" vType="passenger" speedFactor="1.13" vaporized=""/>
    <tripinfo id="veh145" depart="109.00" departLane="383582519_0" departPos="26.28" departSpeed="0.00" departDelay="0.25" arrival="184.00" arrivalLane="492965073#3_1" arrivalPos="202.03" arrivalSpeed="12.80" duration="75.00" routeLength="794.28" waitingTime="0.00" waitingCount="0" stopTime="0.00" timeLoss="11.71" rerouteNo="0" devices="tripinfo_veh145" vType="motorcycle" speedFactor="1.02" vaporized=""/>
    <tripinfo id="veh66" depart="50.00" departLane="40345956#2_1" departPos="2.36" departSpeed="0.00" departDelay="0.50" arrival="187.00" arrivalLane="48778510#1_1" arrivalPos="102.69" arrivalSpeed="12.90" duration="137.00" routeLength="1315.26" waitingTime="8.00" waitingCount="1" stopTime="0.00" timeLoss="33.37" rerouteNo="0" devices="tripinfo_veh66" vType="passenger" speedFactor="0.98" vaporized=""/>
    <tripinfo id="veh122" depart="93.00" departLane="-43546105#3_1" departPos="20.29" departSpeed="0.00" departDelay="1.50" arrival="195.00" arrivalLane="43544202#1_1" arrivalPos="96.02" arrivalSpeed="13.60" duration="102.00" routeLength="1110.48" waitingTime="0.00" waitingCount="0" stopTime="0.00" timeLoss="20.38" rerouteNo="0" devices="tripinfo_veh122" vType="motorcycle" speedFactor="1.04" vaporized=""/>
    <tripinfo id="veh81" depart="61.00" departLane="383582503_0" departPos="65.35" departSpeed="0.00" departDelay="0.25" arrival="198.00" arrivalLane="-250295379_1" arrivalPos="126.33" arrivalSpeed="12.60" duration="137.00" routeLength="1212.02" waitingTime="13.00" waitingCount="1" stopTime="0.00" timeLoss="40.37" rerouteNo="0" devices="tripinfo_veh81" vType="delivery" speedFactor="0.98" vaporized=""/>
    <tripinfo id="veh199" depart="150.00" departLane="-92198451#0.58_2" departPos="0.59" departSpeed="0.00" departDelay="0.75" arrival="204.00" arrivalLane="1205541343#0_1" arrivalPos="29.20" arrivalSpeed="3.96" duration="54.00" routeLength="507.09" waitingTime="0.00" waitingCount="0" stopTime="0.00" timeLoss="7.44" rerouteNo="0" devices="tripinfo_veh199" vType="passenger" speedFactor="0.89" vaporized=""/>
    <tripinfo id="veh32" depart="24.00" departLane="-222605087#2_1" departPos="7.32" departSpeed="0.00" departDelay="0.00" arrival="208.00" arrivalLane="143207979#8_1" arrivalPos="38.62" arrivalSpeed="14.46" duration="184.00" routeLength="2150.36" waitingTime="1.00" waitingCount="1" stopTime="0.00" timeLoss="26.25" rerouteNo="0" devices="tripinfo_veh32" vType="passenger" speedFactor="1.07" vaporized=""/>
    <tripinfo id="veh203" depart="153.00" departLane="43546648#4_1" departPos="70.24" departSpeed="0.00" departDelay="0.75" arrival="208.00" arrivalLane="-48778457#1_1" arrivalPos="25.26" arrivalSpeed="11.62" duration="55.00" routeLength="439.43" waitingTime="0.00" waitingCount="0" stopTime="0.00" timeLoss="14.27" rerouteNo="0" devices="tripinfo_veh203" vType="passenger" speedFactor="0.85" vaporized=""/>
    <tripinfo id="veh234" depart="176.00" departLane="-43546648#4_1" departPos="18.83" departSpeed="0.00" departDelay="0.50" arrival="213.00" arrivalLane="-1136301812#1_1" arrivalPos="6.69" arrivalSpeed="9.25" duration="37.00" routeLength="298.93" waitingTime="0.00" waitingCount="0" stopTime="0.00" timeLoss="10.86" rerouteNo="0" devices="tripinfo_veh234" vType="passenger" speedFactor="0.98" vaporized=""/>
    <tripinfo id="veh118" depart="89.00" departLane="222609002#0_1" departPos="46.71" departSpeed="0.00" departDelay="0.50" arrival="216.00" arrivalLane="48736645_1" arrivalPos="132.12" arrivalSpeed="14.67" duration="127.00" routeLength="1503.57" waitingTime="0.00" waitingCount="0" stopTime="0.00" timeLoss="21.74" rerouteNo="0" devices="tripinfo_veh118" vType="delivery" speedFactor="1.06" vaporized=""/>
    <tripinfo id="veh17" depart="13.00" departLane="-1205541343#1_1" departPos="4.08" departSpeed="0.00" departDelay="0.25" arrival="219.00" arrivalLane="-1135856957_0" arrivalPos="27.07" arrivalSpeed="4.22" duration="206.00" routeLength="1357.74" waitingTime="53.00" waitingCount="1" stopTime="0.00" timeLoss="75.83" rerouteNo="0" devices="tripinfo_veh17" vType="passenger" speedFactor="0.87" vaporized=""/>
    <tripinfo id="veh64" depart="48.00" departLane="-470210923#2_2" departPos="56.23" departSpeed="0.00" departDelay="0.00" arrival="220.00" arrivalLane="-40330571#2_1" arrivalPos="24.26" arrivalSpeed="12.91" duration="172.00" routeLength="1736.64" waitingTime="23.00" waitingCount="1" stopTime="0.00" timeLoss="45.80" rerouteNo="0" devices="tripinfo_veh64" vType="passenger" speedFactor="1.02" vaporized=""/>
    <tripinfo id="veh114" depart="86.00" departLane="-40299276#1_1" departPos="25.98" departSpeed="0.00" departDelay="0.50" arrival="220.00" arrivalLane="-43546648#4_1" arrivalPos="81.62" arrivalSpeed="13.86" duration="134.00" routeLength="1348.72" waitingTime="2.00" waitingCount="2" stopTime="0.00" timeLoss="35.59" rerouteNo="0" devices="tripinfo_veh114" vType="passenger" speedFactor="1.06" vaporized=""/>
    <tripinfo id="veh11" depart="9.00" departLane="43544001#7_1" departPos="14.01" departSpeed="0.00" departDelay="0.75" arrival="221.00" arrivalLane="-40330583#0_0" arrivalPos="91.11" arrivalSpeed="23.86" duration="212.00" routeLength="2641.44" waitingTime="2.00" waitingCount="1" stopTime="0.00" timeLoss="24.22" rerouteNo="0" devices="tripinfo_veh11" vType="delivery" speedFactor="0.97" vaporized=""/>
    <tripinfo id="veh51" depart="39.00" departLane="-48778492_1" departPos="34.74" departSpeed="0.00" departDelay="0.75" arrival="221.00" arrivalLane="-33909936#4_1" arrivalPos="15.04" arrivalSpeed="13.15" duration="182.00" routeLength="1885.30" waitingTime="10.00" waitingCount="4" stopTime="0.00" timeLoss="40.01" rerouteNo="0" devices="tripinfo_veh51" vType="delivery" speedFactor="0.99" vaporized=""/>
    <tripinfo id="veh35" depart="27.00" departLane="383582494_0" departPos="124.34" departSpeed="0.00" departDelay="0.75" arrival="223.00" arrivalLane="-223883702_1" arrivalPos="271.06" arrivalSpeed="14.29" duration="196.00" routeLength="2504.43" waitingTime="0.00" waitingCount="0" stopTime="0.00" timeLoss="23.52" rerouteNo="0" devices="tripinfo_veh35" vType="passenger" speedFactor="1.09" vaporized=""/>
    <tripinfo id="veh67" depart="51.00" departLane="-33909936#0_1" departPos="11.56" departSpeed="0.00" departDelay="0.75" arrival="226.00" arrivalLane="48797773_1" arrivalPos="23.80" arrivalSpeed="12.76" duration="175.00" routeLength="1836.81" waitingTime="2.00" waitingCount="2" stopTime="0.00" timeLoss="35.67" rerouteNo="0" devices="tripinfo_veh67" vType="passenger" speedFactor="0.98" vaporized=""/>
    <tripinfo id="veh40" depart="30.00" departLane="-1364605473_0" departPos="40.05" departSpeed="0.00" departDelay="0.00" arrival="228.00" arrivalLane="-48778517#0_1" arrivalPos="43.62" arrivalSpeed="9.29" duration="198.00" routeLength="2572.90" waitingTime="0.00" waitingCount="0" stopTime="0.00" timeLoss="32.21" rerouteNo="0" devices="tripinfo_veh40" vType="passenger" speedFactor="1.17" vaporized=""/>
    <tripinfo id="veh87" depart="66.00" departLane="-43546449#2_1" departPos="31.13" departSpeed="0.00" departDelay="0.75" arrival="232.00" arrivalLane="-E34_1" arrivalPos="70.92" arrivalSpeed="13.62" duration="166.00" routeLength="1575.57" waitingTime="21.00" waitingCount="1" stopTime="0.00" timeLoss="52.07" rerouteNo="0" devices="tripinfo_veh87" vType="delivery" speedFactor="1.03" vaporized=""/>
    <tripinfo id="veh133" depart="100.00" departLane="-40330557#2_1" departPos="35.63" departSpeed="0.00" departDelay="0.25" arrival="234.00" arrivalLane="222609002#0_1" arrivalPos="115.28" arrivalSpeed="14.72" duration="134.00" routeLength="763.71" waitingTime="44.00" waitingCount="4" stopTime="0.00" timeLoss="83.14" rerouteNo="0" devices="tripinfo_veh133" vType="passenger" speedFactor="1.13" vaporized=""/>
    <tripinfo id="veh111" depart="84.00" departLane="-43545645#0_1" departPos="92.32" departSpeed="0.00" departDelay="0.75" arrival="237.00" arrivalLane="40236203#0_1" arrivalPos="83.35" arrivalSpeed="13.61" duration="153.00" routeLength="1488.04" waitingTime="16.00" waitingCount="1" stopTime="0.00" timeLoss="42.95" rerouteNo="0" devices="tripinfo_veh111" vType="passenger" speedFactor="1.01" vaporized=""/>
    <tripinfo id="veh186" depart="140.00" departLane="-48736602_1" departPos="27.51" departSpeed="0.00" departDelay="0.50" arrival="237.00" arrivalLane="48736614#3_1" arrivalPos="117.48" arrivalSpeed="12.32" duration="97.00" routeLength="1048.63" waitingTime="0.00" waitingCount="0" stopTime="0.00" timeLoss="17.84" rerouteNo="0" devices="tripinfo_veh186" vType="motorcycle" speedFactor="1.00" vaporized=""/>
    <tripinfo id="veh38" depart="29.00" departLane="-48736647#1_1" departPos="34.30" departSpeed="0.00" departDelay="0.50" arrival="239.00" arrivalLane="250295383#3_1" arrivalPos="11.98" arrivalSpeed="13.57" duration="210.00" routeLength="1542.14" waitingTime="70.00" waitingCount="2" stopTime="0.00" timeLoss="102.47" rerouteNo="0" devices="tripinfo_veh38" vType="passenger" speedFactor="1.06" vaporized=""/>
    <tripinfo id="veh10" depart="8.00" departLane="250295383#3_1" departPos="8.19" departSpeed="0.00" departDelay="0.50" arrival="240.00" arrivalLane="-996984235_0" arrivalPos="15.63" arrivalSpeed="5.52" duration="232.00" routeLength="2030.65" waitingTime="48.00" waitingCount="3" stopTime="0.00" timeLoss="85.80" rerouteNo="0" devices="tripinfo_veh10" vType="passenger" speedFactor="1.04" vaporized=""/>
    <tripinfo id="veh89" depart="67.00" departLane="48736613#1_1" departPos="4.24" departSpeed="0.00" departDelay="0.25" arrival="242.00" arrivalLane="994065253_0" arrivalPos="79.67" arrivalSpeed="6.88" duration="175.00" routeLength="2411.89" waitingTime="0.00" waitingCount="0" stopTime="0.00" timeLoss="24.90" rerouteNo="0" devices="tripinfo_veh89" vType="passenger" speedFactor="1.25" vaporized=""/>
    <tripinfo id="veh201" depart="151.00" departLane="383582496_0" departPos="99.82" departSpeed="0.00" departDelay="0.25" arrival="246.00" arrivalLane="-671642315_1" arrivalPos="17.80" arrivalSpeed="12.38" duration="95.00" routeLength="794.02" waitingTime="5.00" waitingCount="1" stopTime="0.00" timeLoss="23.07" rerouteNo="0" devices="tripinfo_veh201" vType="passenger" speedFactor="1.10" vaporized=""/>
    <tripinfo id="veh207" depart="156.00" departLane="-43546053#2_1" departPos="90.76" departSpeed="0.00" departDelay="0.75" arrival="248.00" arrivalLane="-43544179#10_1" arrivalPos="22.73" arrivalSpeed="13.22" duration="92.00" routeLength="1011.47" waitingTime="0.00" waitingCount="0" stopTime="0.00" timeLoss="15.26" rerouteNo="0" devices="tripinfo_veh207" vType="delivery" speedFactor="0.98" vaporized=""/>
    <tripinfo id="veh231" depart="174.00" departLane="304695350#1_1" departPos="11.35" departSpeed="0.00" departDelay="0.75" arrival="248.00" arrivalLane="-250295513_1" arrivalPos="43.99" arrivalSpeed="14.43" duration="74.00" routeLength="648.56" waitingTime="0.00" waitingCount="0" stopTime="0.00" timeLoss="14.13" rerouteNo="0" devices="tripinfo_veh231" vType="passenger" speedFactor="1.05" vaporized=""/>
    <tripinfo id="veh85" depart="64.00" departLane="43546460#4_1" departPos="118.54" departSpeed="0.00" departDelay="0.25" arrival="250.00" arrivalLane="-92198453#2_1" arrivalPos="114.31" arrivalSpeed="14.00" duration="186.00" routeLength="2245.50" waitingTime="2.00" waitingCount="1" stopTime="0.00" timeLoss="26.43" rerouteNo="0" devices="tripinfo_veh85" vType="passenger" speedFactor="1.03" vaporized=""/>
    <tripinfo id="veh58" depart="44.00" departLane="859732803#0_0" departPos="19.96" departSpeed="0.00" departDelay="0.50" arrival="254.00" arrivalLane="-174818022#0_0" arrivalPos="26.26" arrivalSpeed="5.83" duration="210.00" routeLength="1968.38" waitingTime="19.00" waitingCount="1" stopTime="0.00" timeLoss="51.00" rerouteNo="0" devices="tripinfo_veh58" vType="passenger" speedFactor="1.12" vaporized=""/>
    <tripinfo id="veh49" depart="37.00" departLane="-48736621#0_1" departPos="12.07" departSpeed="0.00" departDelay="0.25" arrival="255.00" arrivalLane="-67712683_1" arrivalPos="77.22" arrivalSpeed="14.80" duration="218.00" routeLength="2745.94" waitingTime="2.00" waitingCount="1" stopTime="0.00" timeLoss="36.36" rerouteNo="0" devices="tripinfo_veh49" vType="passenger" speedFactor="1.12" vaporized=""/>
    <tripinfo id="veh110" depart="83.00" departLane="996489799#2_0" departPos="0.25" departSpeed="0.00" departDelay="0.50" arrival="255.00" arrivalLane="92198453#2_1" arrivalPos="113.66" arrivalSpeed="13.67" duration="172.00" routeLength="1809.29" waitingTime="2.00" waitingCount="1" stopTime="0.00" timeLoss="34.60" rerouteNo="0" devices="tripinfo_veh110" vType="motorcycle" speedFactor="1.04" vaporized=""/>
    <tripinfo id="veh149" depart="112.00" departLane="-43544001#2_1" departPos="10.92" departSpeed="0.00" departDelay="0.25" arrival="255.00" arrivalLane="222605089#1_1" arrivalPos="63.12" arrivalSpeed="12.39" duration="143.00" routeLength="1691.34" waitingTime="0.00" waitingCount="0" stopTime="0.00" timeLoss="25.72" rerouteNo="0" devices="tripinfo_veh149" vType="motorcycle" speedFactor="1.08" vaporized=""/>
    <tripinfo id="veh31" depart="24.00" departLane="-353939570#0_1" departPos="165.03" departSpeed="0.00" departDelay="0.75" arrival="258.00" arrivalLane="-48736646#1_1" arrivalPos="156.36" arrivalSpeed="14.30" duration="234.00" routeLength="2289.10" waitingTime="37.00" waitingCount="1" stopTime="0.00" timeLoss="69.85" rerouteNo="0" devices="tripinfo_veh31" vType="passenger" speedFactor="1.03" vaporized=""/>
    <tripinfo id="veh187" depart="141.00" departLane="492965073#7_2" departPos="23.14" departSpeed="0.00" departDelay="0.75" arrival="259.00" arrivalLane="48736637_1" arrivalPos="17.08" arrivalSpeed="8.00" duration="118.00" routeLength="1125.96" waitingTime="0.00" waitingCount="0" stopTime="0.00" timeLoss="22.47" rerouteNo="0" devices="tripinfo_veh187" vType="passenger" speedFactor="0.91" vaporized=""/>
    <tripinfo id="veh247" depart="186.00" departLane="-1136289992_1" departPos="0.16" departSpeed="0.00" departDelay="0.75" arrival="260.00" arrivalLane="-383582512#1_0" arrivalPos="18.95" arrivalSpeed="5.05" duration="74.00" routeLength="694.76" waitingTime="0.00" waitingCount="0" stopTime="0.00" timeLoss="13.71" rerouteNo="0" devices="tripinfo_veh247" vType="delivery" speedFactor="0.97" vaporized=""/>
    <tripinfo id="veh7" depart="6.00" departLane="1136279381_1" departPos="45.78" departSpeed="0.00" departDelay="0.75" arrival="261.00" arrivalLane="43546105#3_1" arrivalPos="36.33" arrivalSpeed="15.21" duration="255.00" routeLength="2972.05" waitingTime="26.00" waitingCount="1" stopTime="0.00" timeLoss="56.75" rerouteNo="0" devices="tripinfo_veh7" vType="passenger" speedFactor="1.12" vaporized=""/>
    <tripinfo id="veh293" depart="220.00" departLane="43546039#1_1" departPos="15.58" departSpeed="0.00" departDelay="0.25" arrival="262.00" arrivalLane="647226815#0_1" arrivalPos="44.36" arrivalSpeed="13.56" duration="42.00" routeLength="353.04" waitingTime="1.00" waitingCount="1" stopTime="0.00" timeLoss="15.67" rerouteNo="0" devices="tripinfo_veh293" vType="passenger" speedFactor="1.07" vaporized=""/>
    <tripinfo id="veh21" depart="16.00" departLane="-E11_2" departPos="21.59" departSpeed="0.00" departDelay="0.25" arrival="264.00" arrivalLane="1136289989_1" arrivalPos="16.58" arrivalSpeed="8.82" duration="248.00" routeLength="2671.26" waitingTime="19.00" waitingCount="2" stopTime="0.00" timeLoss="65.61" rerouteNo="0" devices="tripinfo_veh21" vType="passenger" speedFactor="1.15" vaporized=""/>
    <tripinfo id="veh77" depart="58.00" departLane="-40269009#1_1" departPos="6.27" departSpeed="0.00" departDelay="0.25" arrival="264.00" arrivalLane="-859728206_0" arrivalPos="20.01" arrivalSpeed="5.34" duration="206.00" routeLength="1980.79" waitingTime="10.00" waitingCount="2" stopTime="0.00" timeLoss="53.86" rerouteNo="0" devices="tripinfo_veh77" vType="passenger" speedFactor="1.10" vaporized=""/>
    <tripinfo id="veh150" depart="113.00" departLane="354259933#3_1" departPos="42.12" departSpeed="0.00" departDelay="0.50" arrival="266.00" arrivalLane="-996489799#2_0" arrivalPos="59.30" arrivalSpeed="4.80" duration="153.00" routeLength="1513.28" waitingTime="0.00" waitingCount="0" stopTime="0.00" timeLoss="27.80" rerouteNo="0" devices="tripinfo_veh150" vType="motorcycle" speedFactor="0.97" vaporized=""/>
    <tripinfo id="veh181" depart="136.00" departLane="-492965073#6_2" departPos="1.09" departSpeed="0.00" departDelay="0.25" arrival="266.00" arrivalLane="1136283379#1_1" arrivalPos="30.99" arrivalSpeed="7.60" duration="130.00" routeLength="1075.29" waitingTime="16.00" waitingCount="1" stopTime="0.00" timeLoss="49.83" rerouteNo="0" devices="tripinfo_veh181" vType="motorcycle" speedFactor="1.10" vaporized=""/>
    <tripinfo id="veh131" depart="99.00" departLane="1135856746#2_1" departPos="316.96" departSpeed="0.00" departDelay="0.75" arrival="270.00" arrivalLane="48736666#1_1" arrivalPos="12.12" arrivalSpeed="10.82" duration="171.00" routeLength="1860.92" waitingTime="0.00" waitingCount="0" stopTime="0.00" timeLoss="15.46" rerouteNo="0" devices="tripinfo_veh131" vType="passenger" speedFactor="0.88" vaporized=""/>
    <tripinfo id="veh264" depart="198.00" departLane="996984133_1" departPos="6.27" departSpeed="0.00" departDelay="0.00" arrival="270.00" arrivalLane="-43573573#1_1" arrivalPos="2.53" arrivalSpeed="5.50" duration="72.00" routeLength="646.08" waitingTime="0.00" waitingCount="0" stopTime="0.00" timeLoss="11.16" rerouteNo="0" devices="tripinfo_veh264" vType="passenger" speedFactor="0.87" vaporized=""/>
    <tripinfo id="veh229" depart="172.00" departLane="-304695350#0_1" departPos="0.15" departSpeed="0.00" departDelay="0.25" arrival="272.00" arrivalLane="48736666#1_1" arrivalPos="12.12" arrivalSpeed="9.00" duration="100.00" routeLength="913.28" waitingTime="7.00" waitingCount="1" stopTime="0.00" timeLoss="26.93" rerouteNo="0" devices="tripinfo_veh229" vType="passenger" speedFactor="0.95" vaporized=""/>
    <tripinfo id="veh93" depart="70.00" departLane="383582496_0" departPos="45.08" departSpeed="0.00" departDelay="0.25" arrival="274.00" arrivalLane="43544001#8_1" arrivalPos="45.27" arrivalSpeed="14.58" duration="204.00" routeLength="1826.71" waitingTime="10.00" waitingCount="2" stopTime="0.00" timeLoss="49.83" rerouteNo="0" devices="tripinfo_veh93" vType="passenger" speedFactor="1.10" vaporized=""/>
    <tripinfo id="veh123" depart="93.00" departLane="43546460#6_1" departPos="6.24" departSpeed="0.00" departDelay="0.75" arrival="274.00" arrivalLane="-43544624#0_1" arrivalPos="295.18" arrivalSpeed="12.80" duration="181.00" routeLength="1900.22" waitingTime="10.00" waitingCount="1" stopTime="0.00" timeLoss="30.96" rerouteNo="0" devices="tripinfo_veh123" vType="passenger" speedFactor="0.94" vaporized=""/>
    <tripinfo id="veh36" depart="27.00" departLane="48736624#3_1" departPos="7.37" departSpeed="0.00" departDelay="0.00" arrival="275.00" arrivalLane="-251916699#1_1" arrivalPos="101.92" arrivalSpeed="12.97" duration="248.00" routeLength="2475.69" waitingTime="15.00" waitingCount="3" stopTime="0.00" timeLoss="57.90" rerouteNo="0" devices="tripinfo_veh36" vType="passenger" speedFactor="0.95" vaporized=""/>
    <tripinfo id="veh171" depart="129.00" departLane="48778441#3_1" departPos="48.34" departSpeed="0.00" departDelay="0.75" arrival="275.00" arrivalLane="984508802_0" arrivalPos="57.38" arrivalSpeed="5.28" duration="146.00" routeLength="1162.99" waitingTime="33.00" waitingCount="1" stopTime="0.00" timeLoss="55.21" rerouteNo="0" devices="tripinfo_veh171" vType="passenger" speedFactor="1.07" vaporized=""/>