<?xml version="1.0" encoding="UTF-8"?>

<!-- generated on 2025-06-15 21:55:48 by Eclipse SUMO sumo Version 1.22.0
<sumoConfiguration xmlns:xsi="http://www.w3.org/2001/XMLSchema-instance" xsi:noNamespaceSchemaLocation="http://sumo.dlr.de/xsd/sumoConfiguration.xsd">

    <input>
        <net-file value="E:/licenta/oras-mediu/2025-06-05-11-45-23\osm.net.xml"/>
        <route-files value="E:/licenta/oras-mediu/2025-06-05-11-45-23\full.rou.xml,E:/licenta/oras-mediu/2025-06-05-11-45-23\ ped.rou.xml,E:/licenta/oras-mediu/2025-06-05-11-45-23\ truck.rou.xml"/>
        <additional-files value="E:/licenta/oras-mediu/2025-06-05-11-45-23\osm.poly.xml,E:/licenta/oras-mediu/2025-06-05-11-45-23\ vtypes.xml"/>
    </input>

    <output>
        <summary-output value="E:/licenta/oras-mediu/2025-06-05-11-45-23\summary.xml"/>
        <tripinfo-output value="evaluation_run_outputs\baseline_outputs\tripinfo_baseline_ep9.xml"/>
    </output>

    <processing>
        <ignore-route-errors value="true"/>
        <tls.actuated.jam-threshold value="30"/>
    </processing>

    <routing>
        <device.rerouting.adaptation-steps value="18"/>
        <device.rerouting.adaptation-interval value="10"/>
    </routing>

    <report>
        <verbose value="true"/>
        <duration-log.statistics value="true"/>
        <no-step-log value="true"/>
    </report>

    <gui_only>
        <gui-settings-file value="E:/licenta/oras-mediu/2025-06-05-11-45-23\osm.view.xml"/>
    </gui_only>

</sumoConfiguration>
-->

<tripinfos xmlns:xsi="http://www.w3.org/2001/XMLSchema-instance" xsi:noNamespaceSchemaLocation="http://sumo.dlr.de/xsd/tripinfo_file.xsd">
    <tripinfo id="veh64" depart="27.00" departLane="48778464#3_1" departPos="0.00" departSpeed="0.00" departDelay="0.76" arrival="45.00" arrivalLane="48778464#2_1" arrivalPos="24.43" arrivalSpeed="12.40" duration="18.00" routeLength="98.36" waitingTime="0.00" waitingCount="0" stopTime="0.00" timeLoss="4.73" rerouteNo="0" devices="tripinfo_veh64" vType="passenger" speedFactor="1.09" vaporized=""/>
    <tripinfo id="veh34" depart="14.00" departLane="-1250915724#0_1" departPos="6.10" departSpeed="0.00" departDelay="0.06" arrival="69.00" arrivalLane="-992542691_0" arrivalPos="22.19" arrivalSpeed="5.43" duration="55.00" routeLength="306.97" waitingTime="0.00" waitingCount="0" stopTime="0.00" timeLoss="11.42" rerouteNo="0" devices="tripinfo_veh34" vType="passenger" speedFactor="1.04" vaporized=""/>
    <tripinfo id="veh83" depart="35.00" departLane="1136301815#1_1" departPos="11.68" departSpeed="0.00" departDelay="0.97" arrival="75.00" arrivalLane="647762524_1" arrivalPos="48.75" arrivalSpeed="14.78" duration="40.00" routeLength="332.35" waitingTime="0.00" waitingCount="0" stopTime="0.00" timeLoss="13.64" rerouteNo="0" devices="tripinfo_veh83" vType="passenger" speedFactor="1.08" vaporized=""/>
    <tripinfo id="veh60" depart="25.00" departLane="-43544588#1_1" departPos="5.88" departSpeed="0.00" departDelay="0.40" arrival="78.00" arrivalLane="48778527_1" arrivalPos="56.14" arrivalSpeed="13.77" duration="53.00" routeLength="452.77" waitingTime="0.00" waitingCount="0" stopTime="0.00" timeLoss="18.01" rerouteNo="0" devices="tripinfo_veh60" vType="passenger" speedFactor="1.06" vaporized=""/>
    <tripinfo id="veh70" depart="29.00" departLane="48778504_1" departPos="75.39" departSpeed="0.00" departDelay="0.30" arrival="97.00" arrivalLane="222609002#2_1" arrivalPos="15.40" arrivalSpeed="10.80" duration="68.00" routeLength="689.20" waitingTime="0.00" waitingCount="0" stopTime="0.00" timeLoss="14.86" rerouteNo="0" devices="tripinfo_veh70" vType="passenger" speedFactor="1.01" vaporized=""/>
    <tripinfo id="veh75" depart="31.00" departLane="-43546379_1" departPos="134.83" departSpeed="0.00" departDelay="0.25" arrival="105.00" arrivalLane="48778456#1_1" arrivalPos="114.05" arrivalSpeed="10.83" duration="74.00" routeLength="570.29" waitingTime="2.00" waitingCount="1" stopTime="0.00" timeLoss="20.68" rerouteNo="0" devices="tripinfo_veh75" vType="passenger" speedFactor="0.86" vaporized=""/>
    <tripinfo id="veh122" depart="51.00" departLane="-984508803_0" departPos="6.19" departSpeed="0.00" departDelay="0.98" arrival="111.00" arrivalLane="1136283379#1_1" arrivalPos="30.99" arrivalSpeed="6.65" duration="60.00" routeLength="408.32" waitingTime="9.00" waitingCount="1" stopTime="0.00" timeLoss="20.62" rerouteNo="0" devices="tripinfo_veh122" vType="passenger" speedFactor="0.92" vaporized=""/>
    <tripinfo id="veh50" depart="21.00" departLane="945794108_1" departPos="10.29" departSpeed="0.00" departDelay="0.50" arrival="112.00" arrivalLane="-43544184#3_1" arrivalPos="74.17" arrivalSpeed="15.31" duration="91.00" routeLength="878.03" waitingTime="4.00" waitingCount="1" stopTime="0.00" timeLoss="31.75" rerouteNo="0" devices="tripinfo_veh50" vType="passenger" speedFactor="1.12" vaporized=""/>
    <tripinfo id="veh115" depart="48.00" departLane="-48736638#2_1" departPos="23.89" departSpeed="0.00" departDelay="0.85" arrival="119.00" arrivalLane="492965073#8_1" arrivalPos="91.29" arrivalSpeed="14.00" duration="71.00" routeLength="783.24" waitingTime="3.00" waitingCount="2" stopTime="0.00" timeLoss="16.40" rerouteNo="0" devices="tripinfo_veh115" vType="delivery" speedFactor="1.06" vaporized=""/>
    <tripinfo id="veh91" depart="38.00" departLane="43544179#8_1" departPos="12.26" departSpeed="0.00" departDelay="0.69" arrival="121.00" arrivalLane="-43544001#14_1" arrivalPos="60.31" arrivalSpeed="15.05" duration="83.00" routeLength="979.88" waitingTime="0.00" waitingCount="0" stopTime="0.00" timeLoss="16.68" rerouteNo="0" devices="tripinfo_veh91" vType="passenger" speedFactor="1.10" vaporized=""/>
    <tripinfo id="veh52" depart="22.00" departLane="-48797768_1" departPos="27.87" departSpeed="0.00" departDelay="0.68" arrival="122.00" arrivalLane="-40299739#2_1" arrivalPos="43.24" arrivalSpeed="13.37" duration="100.00" routeLength="928.49" waitingTime="13.00" waitingCount="1" stopTime="0.00" timeLoss="30.45" rerouteNo="0" devices="tripinfo_veh52" vType="delivery" speedFactor="0.99" vaporized=""/>
    <tripinfo id="veh24" depart="10.00" departLane="354259927_1" departPos="208.26" departSpeed="0.00" departDelay="0.16" arrival="126.00" arrivalLane="-33909936#1_1" arrivalPos="133.03" arrivalSpeed="12.99" duration="116.00" routeLength="1342.36" waitingTime="0.00" waitingCount="0" stopTime="0.00" timeLoss="21.03" rerouteNo="0" devices="tripinfo_veh24" vType="passenger" speedFactor="0.99" vaporized=""/>
    <personinfo id="ped1" depart="5.00" type="DEFAULT_PEDTYPE" speedFactor="1.20" duration="122.00" waitingTime="0.00" timeLoss="15.96" traveltime="122.00">
        <walk depart="5.00" departPos="0.00" arrival="127.00" arrivalPos="21.34" duration="122.00" routeLength="176.80" timeLoss="15.96" maxSpeed="1.67"/>
    </personinfo>
    <tripinfo id="veh169" depart="70.00" departLane="-43544179#10_1" departPos="11.93" departSpeed="0.00" departDelay="0.71" arrival="129.00" arrivalLane="-143207979#1_1" arrivalPos="43.59" arrivalSpeed="13.42" duration="59.00" routeLength="698.01" waitingTime="0.00" waitingCount="0" stopTime="0.00" timeLoss="8.59" rerouteNo="0" devices="tripinfo_veh169" vType="passenger" speedFactor="1.04" vaporized=""/>
    <tripinfo id="veh13" depart="6.00" departLane="1136283379#0_1" departPos="88.39" departSpeed="0.00" departDelay="0.67" arrival="132.00" arrivalLane="48778449#1_1" arrivalPos="70.68" arrivalSpeed="12.66" duration="126.00" routeLength="1252.99" waitingTime="0.00" waitingCount="0" stopTime="0.00" timeLoss="27.04" rerouteNo="0" devices="tripinfo_veh13" vType="emergency" speedFactor="1.00" vaporized=""/>
    <tripinfo id="veh210" depart="87.00" departLane="-492965073#9_1" departPos="51.46" departSpeed="0.00" departDelay="0.90" arrival="133.00" arrivalLane="-48736639#1_1" arrivalPos="23.90" arrivalSpeed="12.40" duration="46.00" routeLength="406.21" waitingTime="0.00" waitingCount="0" stopTime="0.00" timeLoss="11.21" rerouteNo="0" devices="tripinfo_veh210" vType="passenger" speedFactor="0.96" vaporized=""/>
    <tripinfo id="veh1" depart="1.00" departLane="-945794109_1" departPos="15.55" departSpeed="0.00" departDelay="0.59" arrival="136.00" arrivalLane="222605089#0_1" arrivalPos="43.20" arrivalSpeed="11.28" duration="135.00" routeLength="1402.85" waitingTime="10.00" waitingCount="1" stopTime="0.00" timeLoss="29.73" rerouteNo="0" devices="tripinfo_veh1" vType="motorcycle" speedFactor="0.98" vaporized=""/>
    <tripinfo id="veh147" depart="61.00" departLane="-671642318#1_1" departPos="5.97" departSpeed="0.00" departDelay="0.73" arrival="136.00" arrivalLane="994065254_0" arrivalPos="52.51" arrivalSpeed="4.61" duration="75.00" routeLength="665.07" waitingTime="0.00" waitingCount="0" stopTime="0.00" timeLoss="12.05" rerouteNo="0" devices="tripinfo_veh147" vType="passenger" speedFactor="0.89" vaporized=""/>
    <tripinfo id="veh190" depart="80.00" departLane="33909936#1_1" departPos="37.25" departSpeed="0.00" departDelay="2.10" arrival="136.00" arrivalLane="48778486_1" arrivalPos="28.07" arrivalSpeed="11.13" duration="56.00" routeLength="531.00" waitingTime="0.00" waitingCount="0" stopTime="0.00" timeLoss="10.60" rerouteNo="0" devices="tripinfo_veh190" vType="passenger" speedFactor="0.89" vaporized=""/>
    <tripinfo id="veh173" depart="71.00" departLane="-43546064#2_1" departPos="85.84" departSpeed="0.00" departDelay="0.07" arrival="138.00" arrivalLane="-647226815#0_1" arrivalPos="44.37" arrivalSpeed="12.18" duration="67.00" routeLength="602.04" waitingTime="0.00" waitingCount="0" stopTime="0.00" timeLoss="17.51" rerouteNo="0" devices="tripinfo_veh173" vType="passenger" speedFactor="0.96" vaporized=""/>
    <tripinfo id="veh4" depart="2.00" departLane="859728206_0" departPos="0.87" departSpeed="0.00" departDelay="0.36" arrival="140.00" arrivalLane="-48797772_1" arrivalPos="103.62" arrivalSpeed="14.57" duration="138.00" routeLength="1477.87" waitingTime="0.00" waitingCount="0" stopTime="0.00" timeLoss="23.72" rerouteNo="0" devices="tripinfo_veh4" vType="passenger" speedFactor="1.09" vaporized=""/>
    <tripinfo id="veh221" depart="91.00" departLane="-48736612#5_1" departPos="0.57" departSpeed="0.00" departDelay="0.39" arrival="142.00" arrivalLane="48736621#0_1" arrivalPos="15.22" arrivalSpeed="9.51" duration="51.00" routeLength="432.45" waitingTime="3.00" waitingCount="1" stopTime="0.00" timeLoss="13.42" rerouteNo="0" devices="tripinfo_veh221" vType="passenger" speedFactor="0.87" vaporized=""/>
    <tripinfo id="veh273" depart="112.00" departLane="48736623_1" departPos="2.31" departSpeed="0.00" departDelay="0.07" arrival="150.00" arrivalLane="-48736610#1_1" arrivalPos="1.24" arrivalSpeed="13.26" duration="38.00" routeLength="385.45" waitingTime="0.00" waitingCount="0" stopTime="0.00" timeLoss="8.61" rerouteNo="0" devices="tripinfo_veh273" vType="passenger" speedFactor="1.00" vaporized=""/>
    <tripinfo id="veh3" depart="2.00" departLane="492965073#9_2" departPos="45.09" departSpeed="0.00" departDelay="0.77" arrival="152.00" arrivalLane="-48736620#6_1" arrivalPos="3.94" arrivalSpeed="13.54" duration="150.00" routeLength="1625.03" waitingTime="6.00" waitingCount="1" stopTime="0.00" timeLoss="30.98" rerouteNo="0" devices="tripinfo_veh3" vType="passenger" speedFactor="1.01" vaporized=""/>
    <tripinfo id="veh235" depart="97.00" departLane="-40330575#4_1" departPos="29.19" departSpeed="0.00" departDelay="0.65" arrival="152.00" arrivalLane="48778485#1_1" arrivalPos="18.27" arrivalSpeed="12.60" duration="55.00" routeLength="520.48" waitingTime="0.00" waitingCount="0" stopTime="0.00" timeLoss="17.31" rerouteNo="0" devices="tripinfo_veh235" vType="passenger" speedFactor="1.10" vaporized=""/>
    <tripinfo id="veh282" depart="116.00" departLane="-43544197#8_1" departPos="131.57" departSpeed="0.00" departDelay="0.38" arrival="152.00" arrivalLane="-43544138#2_1" arrivalPos="0.25" arrivalSpeed="5.04" duration="36.00" routeLength="307.51" waitingTime="0.00" waitingCount="0" stopTime="0.00" timeLoss="7.05" rerouteNo="0" devices="tripinfo_veh282" vType="passenger" speedFactor="0.82" vaporized=""/>
    <tripinfo id="veh258" depart="106.00" departLane="40236220#0_1" departPos="2.37" departSpeed="0.00" departDelay="0.22" arrival="156.00" arrivalLane="273836978#0_1" arrivalPos="13.78" arrivalSpeed="11.65" duration="50.00" routeLength="431.01" waitingTime="0.00" waitingCount="0" stopTime="0.00" timeLoss="11.41" rerouteNo="0" devices="tripinfo_veh258" vType="passenger" speedFactor="0.87" vaporized=""/>
    <tripinfo id="veh57" depart="24.00" departLane="E42_1" departPos="85.36" departSpeed="0.00" departDelay="0.63" arrival="157.00" arrivalLane="-40330583#0_0" arrivalPos="91.11" arrivalSpeed="25.20" duration="133.00" routeLength="1889.36" waitingTime="0.00" waitingCount="0" stopTime="0.00" timeLoss="10.55" rerouteNo="0" devices="tripinfo_veh57" vType="passenger" speedFactor="1.02" vaporized=""/>
    <tripinfo id="veh208" depart="86.00" departLane="40345956#1_1" departPos="72.39" departSpeed="0.00" departDelay="0.72" arrival="157.00" arrivalLane="33909936#1_1" arrivalPos="134.25" arrivalSpeed="14.67" duration="71.00" routeLength="896.97" waitingTime="0.00" waitingCount="0" stopTime="0.00" timeLoss="12.24" rerouteNo="0" devices="tripinfo_veh208" vType="passenger" speedFactor="1.13" vaporized=""/>
    <tripinfo id="veh132" depart="55.00" departLane="-1250915721#0_1" departPos="2.06" departSpeed="0.00" departDelay="0.88" arrival="158.00" arrivalLane="-40330557#3_1" arrivalPos="31.45" arrivalSpeed="14.84" duration="103.00" routeLength="704.78" waitingTime="16.00" waitingCount="3" stopTime="0.00" timeLoss="46.27" rerouteNo="0" devices="tripinfo_veh132" vType="passenger" speedFactor="1.13" vaporized=""/>
    <personinfo id="ped17" depart="85.00" type="DEFAULT_PEDTYPE" speedFactor="1.07" duration="74.00" waitingTime="0.00" timeLoss="7.21" traveltime="74.00">
        <walk depart="85.00" departPos="0.00" arrival="159.00" arrivalPos="43.38" duration="74.00" routeLength="99.43" timeLoss="7.21" maxSpeed="1.49"/>
    </personinfo>
    <tripinfo id="veh103" depart="43.00" departLane="-48736646#1_1" departPos="66.88" departSpeed="0.00" departDelay="0.77" arrival="159.00" arrivalLane="984508804_0" arrivalPos="26.89" arrivalSpeed="5.08" duration="116.00" routeLength="1385.61" waitingTime="0.00" waitingCount="0" stopTime="0.00" timeLoss="20.15" rerouteNo="0" devices="tripinfo_veh103" vType="passenger" speedFactor="1.12" vaporized=""/>
    <tripinfo id="veh207" depart="85.00" departLane="40330557#3_1" departPos="15.99" departSpeed="0.00" departDelay="0.13" arrival="159.00" arrivalLane="353939570#8_2" arrivalPos="81.94" arrivalSpeed="15.30" duration="74.00" routeLength="792.29" waitingTime="0.00" waitingCount="0" stopTime="0.00" timeLoss="19.54" rerouteNo="0" devices="tripinfo_veh207" vType="passenger" speedFactor="1.12" vaporized=""/>
    <tripinfo id="veh45" depart="19.00" departLane="-43573547#1_1" departPos="16.09" departSpeed="0.00" departDelay="0.55" arrival="161.00" arrivalLane="1136289992_1" arrivalPos="17.60" arrivalSpeed="5.76" duration="142.00" routeLength="764.93" waitingTime="2.00" waitingCount="1" stopTime="0.00" timeLoss="16.10" rerouteNo="0" devices="tripinfo_veh45" vType="bicycle" speedFactor="1.10" vaporized=""/>
    <tripinfo id="veh84" depart="35.00" departLane="40236220#1_1" departPos="3.30" departSpeed="0.00" departDelay="0.56" arrival="163.00" arrivalLane="-353939570#6_1" arrivalPos="0.20" arrivalSpeed="14.27" duration="128.00" routeLength="1164.49" waitingTime="19.00" waitingCount="1" stopTime="0.00" timeLoss="43.69" rerouteNo="0" devices="tripinfo_veh84" vType="passenger" speedFactor="1.03" vaporized=""/>
    <tripinfo id="veh96" depart="40.00" departLane="43544202#2_1" departPos="112.14" departSpeed="0.00" departDelay="0.64" arrival="167.00" arrivalLane="222605089#0_1" arrivalPos="43.20" arrivalSpeed="13.56" duration="127.00" routeLength="824.14" waitingTime="48.00" waitingCount="1" stopTime="0.00" timeLoss="63.86" rerouteNo="0" devices="tripinfo_veh96" vType="motorcycle" speedFactor="0.98" vaporized=""/>
    <tripinfo id="veh27" depart="12.00" departLane="-258551317_1" departPos="14.51" departSpeed="0.00" departDelay="0.93" arrival="168.00" arrivalLane="-383582519_0" arrivalPos="74.79" arrivalSpeed="4.12" duration="156.00" routeLength="1195.51" waitingTime="37.00" waitingCount="1" stopTime="0.00" timeLoss="59.81" rerouteNo="0" devices="tripinfo_veh27" vType="motorcycle" speedFactor="1.02" vaporized=""/>
    <tripinfo id="veh141" depart="58.00" departLane="-48778517#1_1" departPos="4.37" departSpeed="0.00" departDelay="0.19" arrival="168.00" arrivalLane="-43544624#0_1" arrivalPos="295.18" arrivalSpeed="14.95" duration="110.00" routeLength="1230.36" waitingTime="0.00" waitingCount="0" stopTime="0.00" timeLoss="20.53" rerouteNo="0" devices="tripinfo_veh141" vType="motorcycle" speedFactor="1.08" vaporized=""/>
    <tripinfo id="veh165" depart="68.00" departLane="647998060#0_1" departPos="32.93" departSpeed="0.00" departDelay="0.35" arrival="168.00" arrivalLane="48778511_1" arrivalPos="75.86" arrivalSpeed="10.75" duration="100.00" routeLength="806.24" waitingTime="0.00" waitingCount="0" stopTime="0.00" timeLoss="21.11" rerouteNo="0" devices="tripinfo_veh165" vType="passenger" speedFactor="0.80" vaporized=""/>
    <tripinfo id="veh192" depart="79.00" departLane="383582506_0" departPos="8.12" departSpeed="0.00" departDelay="0.28" arrival="168.00" arrivalLane="647998062_1" arrivalPos="77.82" arrivalSpeed="15.28" duration="89.00" routeLength="726.40" waitingTime="2.00" waitingCount="1" stopTime="0.00" timeLoss="31.75" rerouteNo="0" devices="tripinfo_veh192" vType="passenger" speedFactor="1.10" vaporized=""/>
    <tripinfo id="veh167" depart="69.00" departLane="-48778476_1" departPos="63.37" departSpeed="0.00" departDelay="0.53" arrival="169.00" arrivalLane="1136283361_0" arrivalPos="47.88" arrivalSpeed="4.79" duration="100.00" routeLength="878.58" waitingTime="2.00" waitingCount="2" stopTime="0.00" timeLoss="23.37" rerouteNo="0" devices="tripinfo_veh167" vType="passenger" speedFactor="0.98" vaporized=""/>
    <tripinfo id="veh49" depart="21.00" departLane="48778520_1" departPos="58.82" departSpeed="0.00" departDelay="0.91" arrival="170.00" arrivalLane="40265777#1_1" arrivalPos="65.39" arrivalSpeed="13.06" duration="149.00" routeLength="1796.99" waitingTime="1.00" waitingCount="1" stopTime="0.00" timeLoss="16.78" rerouteNo="0" devices="tripinfo_veh49" vType="passenger" speedFactor="1.00" vaporized=""/>
    <tripinfo id="veh100" depart="41.00" departLane="48736632#0_1" departPos="42.93" departSpeed="0.00" departDelay="0.00" arrival="170.00" arrivalLane="48736612#2_1" arrivalPos="52.68" arrivalSpeed="11.65" duration="129.00" routeLength="916.23" waitingTime="29.00" waitingCount="1" stopTime="0.00" timeLoss="49.71" rerouteNo="0" devices="tripinfo_veh100" vType="passenger" speedFactor="0.89" vaporized=""/>
    <tripinfo id="veh227" depart="94.00" departLane="-43547017#1_1" departPos="4.62" departSpeed="0.00" departDelay="0.93" arrival="171.00" arrivalLane="43544138#0_1" arrivalPos="42.14" arrivalSpeed="12.55" duration="77.00" routeLength="734.78" waitingTime="0.00" waitingCount="0" stopTime="0.00" timeLoss="18.31" rerouteNo="0" devices="tripinfo_veh227" vType="passenger" speedFactor="0.98" vaporized=""/>
    <tripinfo id="veh19" depart="8.00" departLane="-40334244#0_1" departPos="35.16" departSpeed="0.00" departDelay="0.21" arrival="172.00" arrivalLane="40314876_1" arrivalPos="38.09" arrivalSpeed="13.09" duration="164.00" routeLength="1389.63" waitingTime="17.00" waitingCount="1" stopTime="0.00" timeLoss="62.20" rerouteNo="0" devices="tripinfo_veh19" vType="passenger" speedFactor="1.03" vaporized=""/>
    <tripinfo id="veh20" depart="9.00" departLane="-48778510#0_1" departPos="0.23" departSpeed="0.00" departDelay="0.80" arrival="173.00" arrivalLane="-48736613#3_1" arrivalPos="41.47" arrivalSpeed="15.41" duration="164.00" routeLength="1885.39" waitingTime="6.00" waitingCount="1" stopTime="0.00" timeLoss="41.43" rerouteNo="0" devices="tripinfo_veh20" vType="passenger" speedFactor="1.13" vaporized=""/>
    <tripinfo id="veh230" depart="95.00" departLane="48736643_1" departPos="22.65" departSpeed="0.00" departDelay="0.70" arrival="176.00" arrivalLane="-984521612#0_0" arrivalPos="12.48" arrivalSpeed="3.12" duration="81.00" routeLength="674.89" waitingTime="0.00" waitingCount="0" stopTime="0.00" timeLoss="20.22" rerouteNo="0" devices="tripinfo_veh230" vType="motorcycle" speedFactor="0.94" vaporized=""/>
    <tripinfo id="veh152" depart="63.00" departLane="1135855912_1" departPos="23.04" departSpeed="0.00" departDelay="0.68" arrival="179.00" arrivalLane="48778441#2_1" arrivalPos="20.46" arrivalSpeed="12.48" duration="116.00" routeLength="1061.70" waitingTime="3.00" waitingCount="1" stopTime="0.00" timeLoss="26.35" rerouteNo="0" devices="tripinfo_veh152" vType="passenger" speedFactor="0.90" vaporized=""/>
    <tripinfo id="veh157" depart="65.00" departLane="40236259_1" departPos="131.22" departSpeed="0.00" departDelay="0.63" arrival="179.00" arrivalLane="48778493#2_1" arrivalPos="44.65" arrivalSpeed="14.22" duration="114.00" routeLength="598.34" waitingTime="46.00" waitingCount="1" stopTime="0.00" timeLoss="69.35" rerouteNo="0" devices="tripinfo_veh157" vType="passenger" speedFactor="1.04" vaporized=""/>
    <tripinfo id="veh94" depart="39.00" departLane="-43547579#3_1" departPos="40.81" departSpeed="0.00" departDelay="0.46" arrival="181.00" arrivalLane="-48736612#6_1" arrivalPos="0.20" arrivalSpeed="14.96" duration="142.00" routeLength="1555.09" waitingTime="19.00" waitingCount="1" stopTime="0.00" timeLoss="40.94" rerouteNo="0" devices="tripinfo_veh94" vType="passenger" speedFactor="1.13" vaporized=""/>
    <tripinfo id="veh241" depart="99.00" departLane="143207979#2_1" departPos="7.19" departSpeed="0.00" departDelay="0.19" arrival="181.00" arrivalLane="43547017#1_1" arrivalPos="26.92" arrivalSpeed="11.46" duration="82.00" routeLength="734.13" waitingTime="8.00" waitingCount="1" stopTime="0.00" timeLoss="25.08" rerouteNo="0" devices="tripinfo_veh241" vType="passenger" speedFactor="0.97" vaporized=""/>
    <tripinfo id="veh187" depart="77.00" departLane="48778516_1" departPos="25.26" departSpeed="0.00" departDelay="0.33" arrival="183.00" arrivalLane="-43544624#1_1" arrivalPos="93.66" arrivalSpeed="14.07" duration="106.00" routeLength="1206.98" waitingTime="0.00" waitingCount="0" stopTime="0.00" timeLoss="21.70" rerouteNo="0" devices="tripinfo_veh187" vType="delivery" speedFactor="1.08" vaporized=""/>
    <tripinfo id="veh18" depart="8.00" departLane="-40236220#2_1" departPos="22.04" departSpeed="0.00" departDelay="0.62" arrival="185.00" arrivalLane="647262856_1" arrivalPos="411.78" arrivalSpeed="11.95" duration="177.00" routeLength="1832.39" waitingTime="0.00" waitingCount="0" stopTime="0.00" timeLoss="19.42" rerouteNo="0" devices="tripinfo_veh18" vType="passenger" speedFactor="0.87" vaporized=""/>
    <tripinfo id="veh188" depart="78.00" departLane="-40265775#1_1" departPos="68.17" departSpeed="0.00" departDelay="0.92" arrival="186.00" arrivalLane="-250295380#1_1" arrivalPos="92.88" arrivalSpeed="14.11" duration="108.00" routeLength="664.51" waitingTime="43.00" waitingCount="2" stopTime="0.00" timeLoss="63.85" rerouteNo="0" devices="tripinfo_veh188" vType="motorcycle" speedFactor="1.14" vaporized=""/>
    <tripinfo id="veh156" depart="64.00" departLane="-647621857_0" departPos="35.82" departSpeed="0.00" departDelay="0.04" arrival="187.00" arrivalLane="-174817602_0" arrivalPos="136.56" arrivalSpeed="4.96" duration="123.00" routeLength="1165.09" waitingTime="0.00" waitingCount="0" stopTime="0.00" timeLoss="13.19" rerouteNo="0" devices="tripinfo_veh156" vType="delivery" speedFactor="0.94" vaporized=""/>
    <tripinfo id="veh43" depart="18.00" departLane="-43546449#1_1" departPos="30.07" departSpeed="0.00" departDelay="0.37" arrival="188.00" arrivalLane="-251916699#0_1" arrivalPos="41.20" arrivalSpeed="13.83" duration="170.00" routeLength="1533.36" waitingTime="27.00" waitingCount="3" stopTime="0.00" timeLoss="61.75" rerouteNo="0" devices="tripinfo_veh43" vType="passenger" speedFactor="1.05" vaporized=""/>
    <tripinfo id="veh345" depart="142.00" departLane="43547017#4_1" departPos="6.77" departSpeed="0.00" departDelay="0.55" arrival="189.00" arrivalLane="-43544001#15_1" arrivalPos="24.27" arrivalSpeed="10.86" duration="47.00" routeLength="511.65" waitingTime="0.00" waitingCount="0" stopTime="0.00" timeLoss="12.02" rerouteNo="0" devices="tripinfo_veh345" vType="passenger" speedFactor="1.12" vaporized=""/>
    <tripinfo id="veh11" depart="5.00" departLane="48778475#1_1" departPos="11.75" departSpeed="0.00" departDelay="0.49" arrival="192.00" arrivalLane="43544184#3_1" arrivalPos="83.07" arrivalSpeed="6.55" duration="187.00" routeLength="2117.25" waitingTime="0.00" waitingCount="0" stopTime="0.00" timeLoss="37.49" rerouteNo="0" devices="tripinfo_veh11" vType="passenger" speedFactor="1.04" vaporized=""/>
    <tripinfo id="veh32" depart="14.00" departLane="470207092#0_1" departPos="67.24" departSpeed="0.00" departDelay="0.88" arrival="192.00" arrivalLane="43546105#1_1" arrivalPos="277.32" arrivalSpeed="14.61" duration="178.00" routeLength="1957.77" waitingTime="0.00" waitingCount="0" stopTime="0.00" timeLoss="25.47" rerouteNo="0" devices="tripinfo_veh32" vType="passenger" speedFactor="1.07" vaporized=""/>
    <tripinfo id="veh293" depart="121.00" departLane="647226814#0_1" departPos="0.42" departSpeed="0.00" departDelay="0.87" arrival="194.00" arrivalLane="143207979#2_1" arrivalPos="38.81" arrivalSpeed="12.48" duration="73.00" routeLength="579.40" waitingTime="4.00" waitingCount="1" stopTime="0.00" timeLoss="25.50" rerouteNo="0" devices="tripinfo_veh293" vType="delivery" speedFactor="0.97" vaporized=""/>
    <tripinfo id="veh29" depart="12.00" departLane="-48797765#2_1" departPos="4.55" departSpeed="0.00" departDelay="0.11" arrival="196.00" arrivalLane="E17_2" arrivalPos="59.03" arrivalSpeed="15.13" duration="184.00" routeLength="1844.01" waitingTime="8.00" waitingCount="1" stopTime="0.00" timeLoss="56.06" rerouteNo="0" devices="tripinfo_veh29" vType="passenger" speedFactor="1.10" vaporized=""/>
    <tripinfo id="veh35" depart="15.00" departLane="48778480#4_1" departPos="2.71" departSpeed="0.00" departDelay="0.65" arrival="196.00" arrivalLane="48778503#0_1" arrivalPos="42.51" arrivalSpeed="12.79" duration="181.00" routeLength="1747.99" waitingTime="18.00" waitingCount="1" stopTime="0.00" timeLoss="50.28" rerouteNo="0" devices="tripinfo_veh35" vType="emergency" speedFactor="1.00" vaporized=""/>
    <tripinfo id="veh78" depart="32.00" departLane="1136301818_1" departPos="18.45" departSpeed="0.00" departDelay="0.02" arrival="198.00" arrivalLane="-48736666#0_1" arrivalPos="53.08" arrivalSpeed="14.74" duration="166.00" routeLength="1301.78" waitingTime="45.00" waitingCount="1" stopTime="0.00" timeLoss="75.91" rerouteNo="0" devices="tripinfo_veh78" vType="passenger" speedFactor="1.10" vaporized=""/>
    <tripinfo id="veh197" depart="81.00" departLane="383582514_1" departPos="85.97" departSpeed="0.00" departDelay="0.23" arrival="198.00" arrivalLane="994065254_0" arrivalPos="52.51" arrivalSpeed="4.89" duration="117.00" routeLength="1187.82" waitingTime="0.00" waitingCount="0" stopTime="0.00" timeLoss="20.08" rerouteNo="0" devices="tripinfo_veh197" vType="motorcycle" speedFactor="1.04" vaporized=""/>
    <tripinfo id="veh80" depart="33.00" departLane="33909936#3_1" departPos="2.09" departSpeed="0.00" departDelay="0.20" arrival="199.00" arrivalLane="354252043_1" arrivalPos="59.61" arrivalSpeed="13.31" duration="166.00" routeLength="1780.60" waitingTime="7.00" waitingCount="1" stopTime="0.00" timeLoss="30.39" rerouteNo="0" devices="tripinfo_veh80" vType="delivery" speedFactor="0.98" vaporized=""/>
    <tripinfo id="veh223" depart="92.00" departLane="383582500_0" departPos="73.99" departSpeed="0.00" departDelay="0.57" arrival="199.00" arrivalLane="671642315_1" arrivalPos="17.80" arrivalSpeed="10.10" duration="107.00" routeLength="733.56" waitingTime="0.00" waitingCount="0" stopTime="0.00" timeLoss="19.52" rerouteNo="0" devices="tripinfo_veh223" vType="passenger" speedFactor="0.97" vaporized=""/>
    <tripinfo id="veh47" depart="20.00" departLane="-48736642_1" departPos="39.01" departSpeed="0.00" departDelay="0.73" arrival="200.00" arrivalLane="48736612#2_1" arrivalPos="52.68" arrivalSpeed="12.46" duration="180.00" routeLength="1567.63" waitingTime="31.00" waitingCount="3" stopTime="0.00" timeLoss="61.51" rerouteNo="0" devices="tripinfo_veh47" vType="delivery" speedFactor="0.98" vaporized=""/>
    <tripinfo id="veh48" depart="20.00" departLane="-48778478#0_1" departPos="0.20" departSpeed="0.00" departDelay="0.32" arrival="200.00" arrivalLane="353939586#0_1" arrivalPos="140.76" arrivalSpeed="12.96" duration="180.00" routeLength="1644.55" waitingTime="22.00" waitingCount="2" stopTime="0.00" timeLoss="57.17" rerouteNo="0" devices="tripinfo_veh48" vType="passenger" speedFactor="1.02" vaporized=""/>
    <tripinfo id="veh116" depart="48.00" departLane="48736618_1" departPos="15.01" departSpeed="0.00" departDelay="0.44" arrival="200.00" arrivalLane="-48736620#2_2" arrivalPos="95.25" arrivalSpeed="16.61" duration="152.00" routeLength="1176.40" waitingTime="36.00" waitingCount="2" stopTime="0.00" timeLoss="78.90" rerouteNo="0" devices="tripinfo_veh116" vType="passenger" speedFactor="1.21" vaporized=""/>
    <personinfo id="ped0" depart="0.00" type="DEFAULT_PEDTYPE" speedFactor="0.84" duration="201.00" waitingTime="0.00" timeLoss="21.55" traveltime="201.00">
        <walk depart="0.00" departPos="0.00" arrival="201.00" arrivalPos="26.45" duration="201.00" routeLength="209.16" timeLoss="21.55" maxSpeed="1.17"/>
    </personinfo>