<?xml version="1.0" encoding="UTF-8"?>

<!-- generated on 2025-06-15 21:46:46 by Eclipse SUMO sumo Version 1.22.0
<sumoConfiguration xmlns:xsi="http://www.w3.org/2001/XMLSchema-instance" xsi:noNamespaceSchemaLocation="http://sumo.dlr.de/xsd/sumoConfiguration.xsd">

    <input>
        <net-file value="E:/licenta/oras-mediu/2025-06-05-11-45-23\osm.net.xml"/>
        <route-files value="E:/licenta/oras-mediu/2025-06-05-11-45-23\full.rou.xml,E:/licenta/oras-mediu/2025-06-05-11-45-23\ ped.rou.xml,E:/licenta/oras-mediu/2025-06-05-11-45-23\ truck.rou.xml"/>
        <additional-files value="E:/licenta/oras-mediu/2025-06-05-11-45-23\osm.poly.xml,E:/licenta/oras-mediu/2025-06-05-11-45-23\ vtypes.xml"/>
    </input>

    <output>
        <summary-output value="E:/licenta/oras-mediu/2025-06-05-11-45-23\summary.xml"/>
        <tripinfo-output value="evaluation_run_outputs\baseline_outputs\tripinfo_baseline_ep7.xml"/>
    </output>

    <processing>
        <ignore-route-errors value="true"/>
        <tls.actuated.jam-threshold value="30"/>
    </processing>

    <routing>
        <device.rerouting.adaptation-steps value="18"/>
        <device.rerouting.adaptation-interval value="10"/>
    </routing>

    <report>
        <verbose value="true"/>
        <duration-log.statistics value="true"/>
        <no-step-log value="true"/>
    </report>

    <gui_only>
        <gui-settings-file value="E:/licenta/oras-mediu/2025-06-05-11-45-23\osm.view.xml"/>
    </gui_only>

</sumoConfiguration>
-->

<tripinfos xmlns:xsi="http://www.w3.org/2001/XMLSchema-instance" xsi:noNamespaceSchemaLocation="http://sumo.dlr.de/xsd/tripinfo_file.xsd">
    <tripinfo id="veh26" depart="16.00" departLane="48736620#1_2" departPos="11.00" departSpeed="0.00" departDelay="0.40" arrival="62.00" arrivalLane="-143207982#1_1" arrivalPos="40.37" arrivalSpeed="12.48" duration="46.00" routeLength="427.42" waitingTime="0.00" waitingCount="0" stopTime="0.00" timeLoss="11.46" rerouteNo="0" devices="tripinfo_veh26" vType="motorcycle" speedFactor="1.02" vaporized=""/>
    <tripinfo id="veh11" depart="7.00" departLane="-222609002#1_1" departPos="1.14" departSpeed="0.00" departDelay="0.40" arrival="84.00" arrivalLane="-48778473#0_1" arrivalPos="21.31" arrivalSpeed="12.88" duration="77.00" routeLength="902.46" waitingTime="0.00" waitingCount="0" stopTime="0.00" timeLoss="8.92" rerouteNo="0" devices="tripinfo_veh11" vType="delivery" speedFactor="0.97" vaporized=""/>
    <tripinfo id="veh49" depart="30.00" departLane="40266621_1" departPos="25.03" departSpeed="0.00" departDelay="0.60" arrival="89.00" arrivalLane="48778453_1" arrivalPos="29.18" arrivalSpeed="11.97" duration="59.00" routeLength="534.35" waitingTime="0.00" waitingCount="0" stopTime="0.00" timeLoss="16.04" rerouteNo="0" devices="tripinfo_veh49" vType="delivery" speedFactor="0.99" vaporized=""/>
    <tripinfo id="veh18" depart="11.00" departLane="48778493#1_1" departPos="0.79" departSpeed="0.00" departDelay="0.20" arrival="91.00" arrivalLane="353939586#1_1" arrivalPos="265.14" arrivalSpeed="11.30" duration="80.00" routeLength="703.13" waitingTime="0.00" waitingCount="0" stopTime="0.00" timeLoss="12.74" rerouteNo="0" devices="tripinfo_veh18" vType="passenger" speedFactor="0.87" vaporized=""/>
    <personinfo id="ped13" depart="65.00" type="DEFAULT_PEDTYPE" speedFactor="0.98" duration="34.00" waitingTime="0.00" timeLoss="10.39" traveltime="34.00">
        <walk depart="65.00" departPos="0.00" arrival="99.00" arrivalPos="20.40" duration="34.00" routeLength="32.05" timeLoss="10.39" maxSpeed="1.36"/>
    </personinfo>
    <tripinfo id="veh22" depart="14.00" departLane="996984134_0" departPos="7.21" departSpeed="0.00" departDelay="0.80" arrival="99.00" arrivalLane="48778475#2_1" arrivalPos="60.73" arrivalSpeed="15.36" duration="85.00" routeLength="862.10" waitingTime="0.00" waitingCount="0" stopTime="0.00" timeLoss="21.91" rerouteNo="0" devices="tripinfo_veh22" vType="passenger" speedFactor="1.15" vaporized=""/>
    <tripinfo id="veh53" depart="32.00" departLane="48778524#0_1" departPos="20.38" departSpeed="0.00" departDelay="0.20" arrival="99.00" arrivalLane="-48778524#3_1" arrivalPos="28.27" arrivalSpeed="12.83" duration="67.00" routeLength="644.64" waitingTime="0.00" waitingCount="0" stopTime="0.00" timeLoss="14.22" rerouteNo="0" devices="tripinfo_veh53" vType="passenger" speedFactor="0.95" vaporized=""/>
    <tripinfo id="veh55" depart="33.00" departLane="222605085#2_1" departPos="1.72" departSpeed="0.00" departDelay="0.00" arrival="99.00" arrivalLane="-354259933#0_1" arrivalPos="10.70" arrivalSpeed="12.53" duration="66.00" routeLength="722.05" waitingTime="0.00" waitingCount="0" stopTime="0.00" timeLoss="9.37" rerouteNo="0" devices="tripinfo_veh55" vType="delivery" speedFactor="0.96" vaporized=""/>
    <tripinfo id="veh10" depart="6.00" departLane="48797767#2_1" departPos="13.47" departSpeed="0.00" departDelay="0.00" arrival="107.00" arrivalLane="-250295383#4_1" arrivalPos="24.36" arrivalSpeed="13.21" duration="101.00" routeLength="969.76" waitingTime="14.00" waitingCount="1" stopTime="0.00" timeLoss="31.08" rerouteNo="0" devices="tripinfo_veh10" vType="passenger" speedFactor="1.04" vaporized=""/>
    <tripinfo id="veh32" depart="20.00" departLane="43546789#2_1" departPos="30.29" departSpeed="0.00" departDelay="0.80" arrival="113.00" arrivalLane="43546064#1_1" arrivalPos="98.06" arrivalSpeed="14.20" duration="93.00" routeLength="1137.12" waitingTime="0.00" waitingCount="0" stopTime="0.00" timeLoss="12.16" rerouteNo="0" devices="tripinfo_veh32" vType="passenger" speedFactor="1.04" vaporized=""/>
    <tripinfo id="veh108" depart="65.00" departLane="-48736638#2_1" departPos="26.06" departSpeed="0.00" departDelay="0.20" arrival="121.00" arrivalLane="647741479_1" arrivalPos="102.89" arrivalSpeed="13.36" duration="56.00" routeLength="601.92" waitingTime="0.00" waitingCount="0" stopTime="0.00" timeLoss="10.82" rerouteNo="0" devices="tripinfo_veh108" vType="passenger" speedFactor="1.03" vaporized=""/>
    <tripinfo id="veh25" depart="15.00" departLane="-48778500#1_1" departPos="78.33" departSpeed="0.00" departDelay="0.00" arrival="125.00" arrivalLane="-40236232#0_1" arrivalPos="39.66" arrivalSpeed="13.25" duration="110.00" routeLength="1020.64" waitingTime="4.00" waitingCount="1" stopTime="0.00" timeLoss="28.99" rerouteNo="0" devices="tripinfo_veh25" vType="passenger" speedFactor="0.97" vaporized=""/>
    <tripinfo id="veh61" depart="37.00" departLane="222609002#0_1" departPos="69.69" departSpeed="0.00" departDelay="0.40" arrival="127.00" arrivalLane="222605087#0_1" arrivalPos="20.28" arrivalSpeed="5.28" duration="90.00" routeLength="914.79" waitingTime="0.00" waitingCount="0" stopTime="0.00" timeLoss="22.26" rerouteNo="0" devices="tripinfo_veh61" vType="passenger" speedFactor="1.09" vaporized=""/>
    <tripinfo id="veh3" depart="2.00" departLane="-222609002#4_1" departPos="2.28" departSpeed="0.00" departDelay="0.20" arrival="128.00" arrivalLane="273834906_1" arrivalPos="76.57" arrivalSpeed="12.42" duration="126.00" routeLength="1344.40" waitingTime="0.00" waitingCount="0" stopTime="0.00" timeLoss="18.03" rerouteNo="0" devices="tripinfo_veh3" vType="passenger" speedFactor="0.94" vaporized=""/>
    <personinfo id="ped2" depart="10.00" type="DEFAULT_PEDTYPE" speedFactor="0.98" duration="121.00" waitingTime="0.00" timeLoss="13.03" traveltime="121.00">
        <walk depart="10.00" departPos="0.00" arrival="131.00" arrivalPos="1.74" duration="121.00" routeLength="146.55" timeLoss="13.03" maxSpeed="1.36"/>
    </personinfo>
    <tripinfo id="veh7" depart="5.00" departLane="43546105#2_1" departPos="5.08" departSpeed="0.00" departDelay="0.80" arrival="134.00" arrivalLane="33909936#5_1" arrivalPos="58.06" arrivalSpeed="15.38" duration="129.00" routeLength="1540.66" waitingTime="0.00" waitingCount="0" stopTime="0.00" timeLoss="21.41" rerouteNo="0" devices="tripinfo_veh7" vType="passenger" speedFactor="1.12" vaporized=""/>
    <tripinfo id="veh80" depart="48.00" departLane="43546064#0_1" departPos="25.17" departSpeed="0.00" departDelay="0.00" arrival="134.00" arrivalLane="-43544179#6_1" arrivalPos="35.50" arrivalSpeed="12.92" duration="86.00" routeLength="935.67" waitingTime="0.00" waitingCount="0" stopTime="0.00" timeLoss="14.27" rerouteNo="0" devices="tripinfo_veh80" vType="delivery" speedFactor="0.98" vaporized=""/>
    <tripinfo id="veh20" depart="12.00" departLane="-48778517#1_1" departPos="16.49" departSpeed="0.00" departDelay="0.00" arrival="139.00" arrivalLane="40345930_1" arrivalPos="22.03" arrivalSpeed="15.40" duration="127.00" routeLength="1467.78" waitingTime="0.00" waitingCount="0" stopTime="0.00" timeLoss="23.56" rerouteNo="0" devices="tripinfo_veh20" vType="passenger" speedFactor="1.13" vaporized=""/>
    <tripinfo id="veh91" depart="55.00" departLane="-43544046_1" departPos="34.81" departSpeed="0.00" departDelay="0.40" arrival="140.00" arrivalLane="43544624#1_1" arrivalPos="93.66" arrivalSpeed="12.93" duration="85.00" routeLength="832.94" waitingTime="4.00" waitingCount="1" stopTime="0.00" timeLoss="22.42" rerouteNo="0" devices="tripinfo_veh91" vType="delivery" speedFactor="1.01" vaporized=""/>
    <tripinfo id="veh37" depart="23.00" departLane="33909936#1_1" departPos="77.01" departSpeed="0.00" departDelay="0.80" arrival="144.00" arrivalLane="43546105#1_1" arrivalPos="277.32" arrivalSpeed="13.79" duration="121.00" routeLength="1376.29" waitingTime="1.00" waitingCount="1" stopTime="0.00" timeLoss="24.52" rerouteNo="0" devices="tripinfo_veh37" vType="passenger" speedFactor="1.06" vaporized=""/>
    <tripinfo id="veh39" depart="24.00" departLane="354250407#1_2" departPos="28.56" departSpeed="0.00" departDelay="0.60" arrival="148.00" arrivalLane="-143207982#4_1" arrivalPos="17.42" arrivalSpeed="11.21" duration="124.00" routeLength="1309.50" waitingTime="6.00" waitingCount="1" stopTime="0.00" timeLoss="29.76" rerouteNo="0" devices="tripinfo_veh39" vType="passenger" speedFactor="1.05" vaporized=""/>
    <tripinfo id="veh148" depart="89.00" departLane="40314583#5_1" departPos="0.55" departSpeed="0.00" departDelay="0.20" arrival="149.00" arrivalLane="-48736617#1_1" arrivalPos="101.10" arrivalSpeed="11.35" duration="60.00" routeLength="572.42" waitingTime="0.00" waitingCount="0" stopTime="0.00" timeLoss="13.59" rerouteNo="0" devices="tripinfo_veh148" vType="motorcycle" speedFactor="0.97" vaporized=""/>
    <tripinfo id="veh175" depart="105.00" departLane="-48736666#2_1" departPos="19.91" departSpeed="0.00" departDelay="0.00" arrival="155.00" arrivalLane="40299276#0_1" arrivalPos="12.92" arrivalSpeed="10.17" duration="50.00" routeLength="477.77" waitingTime="0.00" waitingCount="0" stopTime="0.00" timeLoss="13.23" rerouteNo="0" devices="tripinfo_veh175" vType="passenger" speedFactor="1.04" vaporized=""/>
    <tripinfo id="veh64" depart="39.00" departLane="48778508#0_1" departPos="3.43" departSpeed="0.00" departDelay="0.60" arrival="159.00" arrivalLane="222609002#2_1" arrivalPos="15.40" arrivalSpeed="11.49" duration="120.00" routeLength="995.63" waitingTime="30.00" waitingCount="1" stopTime="0.00" timeLoss="50.91" rerouteNo="0" devices="tripinfo_veh64" vType="passenger" speedFactor="1.08" vaporized=""/>
    <tripinfo id="veh129" depart="78.00" departLane="E13_1" departPos="25.05" departSpeed="0.00" departDelay="0.60" arrival="159.00" arrivalLane="-48736624#1_1" arrivalPos="55.65" arrivalSpeed="12.54" duration="81.00" routeLength="833.49" waitingTime="2.00" waitingCount="1" stopTime="0.00" timeLoss="19.15" rerouteNo="0" devices="tripinfo_veh129" vType="motorcycle" speedFactor="1.01" vaporized=""/>
    <tripinfo id="veh182" depart="110.00" departLane="-40299739#3_1" departPos="50.48" departSpeed="0.00" departDelay="0.80" arrival="165.00" arrivalLane="-40299271_1" arrivalPos="40.77" arrivalSpeed="13.63" duration="55.00" routeLength="626.59" waitingTime="0.00" waitingCount="0" stopTime="0.00" timeLoss="8.43" rerouteNo="0" devices="tripinfo_veh182" vType="motorcycle" speedFactor="1.00" vaporized=""/>
    <tripinfo id="veh33" depart="20.00" departLane="48778508#1_1" departPos="60.52" departSpeed="0.00" departDelay="0.20" arrival="168.00" arrivalLane="-40236203#2_1" arrivalPos="10.99" arrivalSpeed="11.74" duration="148.00" routeLength="1619.13" waitingTime="0.00" waitingCount="0" stopTime="0.00" timeLoss="26.48" rerouteNo="0" devices="tripinfo_veh33" vType="emergency" speedFactor="1.00" vaporized=""/>
    <tripinfo id="veh73" depart="44.00" departLane="174818022#1_0" departPos="49.28" departSpeed="0.00" departDelay="0.20" arrival="172.00" arrivalLane="40266907#1_1" arrivalPos="33.57" arrivalSpeed="14.14" duration="128.00" routeLength="872.47" waitingTime="9.00" waitingCount="1" stopTime="0.00" timeLoss="30.89" rerouteNo="0" devices="tripinfo_veh73" vType="passenger" speedFactor="1.06" vaporized=""/>
    <tripinfo id="veh2" depart="2.00" departLane="-48797769_1" departPos="9.05" departSpeed="0.00" departDelay="0.80" arrival="174.00" arrivalLane="48736619_1" arrivalPos="65.02" arrivalSpeed="14.53" duration="172.00" routeLength="1232.36" waitingTime="59.00" waitingCount="2" stopTime="0.00" timeLoss="86.06" rerouteNo="0" devices="tripinfo_veh2" vType="passenger" speedFactor="1.08" vaporized=""/>
    <tripinfo id="veh0" depart="0.00" departLane="1136284448_1" departPos="30.74" departSpeed="0.00" departDelay="0.00" arrival="175.00" arrivalLane="-48736613#3_1" arrivalPos="41.47" arrivalSpeed="10.77" duration="175.00" routeLength="1685.83" waitingTime="20.00" waitingCount="2" stopTime="0.00" timeLoss="48.94" rerouteNo="0" devices="tripinfo_veh0" vType="motorcycle" speedFactor="0.98" vaporized=""/>
    <tripinfo id="veh207" depart="125.00" departLane="-1158942155_1" departPos="15.25" departSpeed="0.00" departDelay="0.80" arrival="178.00" arrivalLane="859734514#0_0" arrivalPos="30.02" arrivalSpeed="4.40" duration="53.00" routeLength="453.31" waitingTime="0.00" waitingCount="0" stopTime="0.00" timeLoss="10.61" rerouteNo="0" devices="tripinfo_veh207" vType="passenger" speedFactor="0.93" vaporized=""/>
    <tripinfo id="veh1" depart="1.00" departLane="223883702_1" departPos="12.33" departSpeed="0.00" departDelay="0.40" arrival="180.00" arrivalLane="647755347#0_1" arrivalPos="70.01" arrivalSpeed="14.53" duration="179.00" routeLength="2118.78" waitingTime="0.00" waitingCount="0" stopTime="0.00" timeLoss="31.60" rerouteNo="0" devices="tripinfo_veh1" vType="passenger" speedFactor="1.08" vaporized=""/>
    <tripinfo id="veh35" depart="21.00" departLane="48778480#4_1" departPos="14.45" departSpeed="0.00" departDelay="0.00" arrival="183.00" arrivalLane="48736614#2_1" arrivalPos="59.68" arrivalSpeed="12.59" duration="162.00" routeLength="1416.00" waitingTime="26.00" waitingCount="2" stopTime="0.00" timeLoss="52.24" rerouteNo="0" devices="tripinfo_veh35" vType="passenger" speedFactor="0.95" vaporized=""/>
    <tripinfo id="veh52" depart="32.00" departLane="996489799#2_0" departPos="22.37" departSpeed="0.00" departDelay="0.80" arrival="183.00" arrivalLane="-43544197#8_1" arrivalPos="132.21" arrivalSpeed="12.04" duration="151.00" routeLength="1319.93" waitingTime="12.00" waitingCount="1" stopTime="0.00" timeLoss="35.13" rerouteNo="0" devices="tripinfo_veh52" vType="passenger" speedFactor="0.91" vaporized=""/>
    <tripinfo id="veh58" depart="35.00" departLane="48778524#2_1" departPos="27.63" departSpeed="0.00" departDelay="0.20" arrival="183.00" arrivalLane="354252043_1" arrivalPos="59.61" arrivalSpeed="13.24" duration="148.00" routeLength="1661.42" waitingTime="0.00" waitingCount="0" stopTime="0.00" timeLoss="26.87" rerouteNo="0" devices="tripinfo_veh58" vType="passenger" speedFactor="1.03" vaporized=""/>
    <tripinfo id="veh88" depart="53.00" departLane="-48736624#3_1" departPos="9.14" departSpeed="0.00" departDelay="0.20" arrival="186.00" arrivalLane="-176279225#0_1" arrivalPos="70.91" arrivalSpeed="17.17" duration="133.00" routeLength="1069.28" waitingTime="38.00" waitingCount="3" stopTime="0.00" timeLoss="68.56" rerouteNo="0" devices="tripinfo_veh88" vType="passenger" speedFactor="1.25" vaporized=""/>
    <tripinfo id="veh156" depart="94.00" departLane="40334244#3_1" departPos="72.12" departSpeed="0.00" departDelay="0.40" arrival="187.00" arrivalLane="-353939570#9_1" arrivalPos="72.93" arrivalSpeed="14.71" duration="93.00" routeLength="1010.76" waitingTime="0.00" waitingCount="0" stopTime="0.00" timeLoss="21.85" rerouteNo="0" devices="tripinfo_veh156" vType="passenger" speedFactor="1.07" vaporized=""/>
    <tripinfo id="veh98" depart="59.00" departLane="-48736655_1" departPos="14.26" departSpeed="0.00" departDelay="0.20" arrival="190.00" arrivalLane="-176279225#1_1" arrivalPos="6.92" arrivalSpeed="13.06" duration="131.00" routeLength="919.78" waitingTime="30.00" waitingCount="1" stopTime="0.00" timeLoss="56.42" rerouteNo="0" devices="tripinfo_veh98" vType="motorcycle" speedFactor="0.94" vaporized=""/>
    <tripinfo id="veh81" depart="49.00" departLane="1250915723#0_1" departPos="1.15" departSpeed="0.00" departDelay="0.40" arrival="195.00" arrivalLane="-48778473#2_1" arrivalPos="37.09" arrivalSpeed="13.13" duration="146.00" routeLength="1354.76" waitingTime="6.00" waitingCount="2" stopTime="0.00" timeLoss="34.65" rerouteNo="0" devices="tripinfo_veh81" vType="passenger" speedFactor="1.06" vaporized=""/>
    <tripinfo id="veh196" depart="118.00" departLane="353939570#2_1" departPos="1.14" departSpeed="0.00" departDelay="0.40" arrival="197.00" arrivalLane="-1250915722#2_1" arrivalPos="3.43" arrivalSpeed="4.44" duration="79.00" routeLength="625.55" waitingTime="0.00" waitingCount="0" stopTime="0.00" timeLoss="16.63" rerouteNo="0" devices="tripinfo_veh196" vType="motorcycle" speedFactor="1.14" vaporized=""/>
    <tripinfo id="veh286" depart="172.00" departLane="43544624#3_1" departPos="97.17" departSpeed="0.00" departDelay="0.40" arrival="197.00" arrivalLane="-43544001#2_1" arrivalPos="52.62" arrivalSpeed="16.44" duration="25.00" routeLength="313.50" waitingTime="0.00" waitingCount="0" stopTime="0.00" timeLoss="6.08" rerouteNo="0" devices="tripinfo_veh286" vType="passenger" speedFactor="1.26" vaporized=""/>
    <tripinfo id="veh146" depart="88.00" departLane="-43547256#0_1" departPos="228.05" departSpeed="0.00" departDelay="0.40" arrival="202.00" arrivalLane="43544179#11_1" arrivalPos="85.20" arrivalSpeed="13.64" duration="114.00" routeLength="1388.20" waitingTime="0.00" waitingCount="0" stopTime="0.00" timeLoss="19.01" rerouteNo="0" devices="tripinfo_veh146" vType="motorcycle" speedFactor="1.08" vaporized=""/>
    <tripinfo id="veh157" depart="95.00" departLane="48778497_1" departPos="230.32" departSpeed="0.00" departDelay="0.80" arrival="202.00" arrivalLane="-43547017#0_1" arrivalPos="90.36" arrivalSpeed="14.65" duration="107.00" routeLength="1375.16" waitingTime="0.00" waitingCount="0" stopTime="0.00" timeLoss="14.87" rerouteNo="0" devices="tripinfo_veh157" vType="passenger" speedFactor="1.10" vaporized=""/>
    <tripinfo id="veh46" depart="28.00" departLane="40265775#0_1" departPos="49.08" departSpeed="0.00" departDelay="0.40" arrival="204.00" arrivalLane="43546343#1_1" arrivalPos="44.30" arrivalSpeed="13.63" duration="176.00" routeLength="1751.05" waitingTime="22.00" waitingCount="1" stopTime="0.00" timeLoss="45.43" rerouteNo="0" devices="tripinfo_veh46" vType="passenger" speedFactor="1.00" vaporized=""/>
    <tripinfo id="veh86" depart="52.00" departLane="92198452#3_1" departPos="46.48" departSpeed="0.00" departDelay="0.40" arrival="204.00" arrivalLane="-383582512#0_0" arrivalPos="35.67" arrivalSpeed="4.50" duration="152.00" routeLength="1518.47" waitingTime="15.00" waitingCount="1" stopTime="0.00" timeLoss="35.34" rerouteNo="0" devices="tripinfo_veh86" vType="delivery" speedFactor="1.03" vaporized=""/>
    <tripinfo id="veh233" depart="140.00" departLane="E42_2" departPos="9.19" departSpeed="0.00" departDelay="0.20" arrival="204.00" arrivalLane="40330557#0_1" arrivalPos="52.98" arrivalSpeed="14.38" duration="64.00" routeLength="794.05" waitingTime="0.00" waitingCount="0" stopTime="0.00" timeLoss="8.06" rerouteNo="0" devices="tripinfo_veh233" vType="passenger" speedFactor="1.05" vaporized=""/>
    <tripinfo id="veh15" depart="9.00" departLane="48778457#1_1" departPos="10.02" departSpeed="0.00" departDelay="0.00" arrival="205.00" arrivalLane="48736640#0_1" arrivalPos="55.87" arrivalSpeed="4.22" duration="196.00" routeLength="743.39" waitingTime="11.00" waitingCount="1" stopTime="0.00" timeLoss="29.23" rerouteNo="0" devices="tripinfo_veh15" vType="bicycle" speedFactor="0.80" vaporized=""/>
    <tripinfo id="veh133" depart="80.00" departLane="-48778525#1_1" departPos="7.05" departSpeed="0.00" departDelay="0.20" arrival="206.00" arrivalLane="-43544184#2_1" arrivalPos="44.27" arrivalSpeed="10.39" duration="126.00" routeLength="1144.58" waitingTime="0.00" waitingCount="0" stopTime="0.00" timeLoss="19.72" rerouteNo="0" devices="tripinfo_veh133" vType="passenger" speedFactor="0.80" vaporized=""/>
    <tripinfo id="veh149" depart="90.00" departLane="67712683_1" departPos="9.95" departSpeed="0.00" departDelay="0.60" arrival="206.00" arrivalLane="-43544001#8_1" arrivalPos="45.26" arrivalSpeed="13.75" duration="116.00" routeLength="1298.66" waitingTime="0.00" waitingCount="0" stopTime="0.00" timeLoss="21.58" rerouteNo="0" devices="tripinfo_veh149" vType="passenger" speedFactor="1.03" vaporized=""/>
    <tripinfo id="veh231" depart="139.00" departLane="-43544197#0_1" departPos="10.48" departSpeed="0.00" departDelay="0.40" arrival="207.00" arrivalLane="-647998062_1" arrivalPos="87.04" arrivalSpeed="11.84" duration="68.00" routeLength="633.69" waitingTime="0.00" waitingCount="0" stopTime="0.00" timeLoss="15.25" rerouteNo="0" devices="tripinfo_veh231" vType="passenger" speedFactor="0.95" vaporized=""/>
    <tripinfo id="veh38" depart="23.00" departLane="-43547579#0_1" departPos="236.41" departSpeed="0.00" departDelay="0.20" arrival="211.00" arrivalLane="859728622_0" arrivalPos="319.42" arrivalSpeed="6.32" duration="188.00" routeLength="1752.36" waitingTime="8.00" waitingCount="2" stopTime="0.00" timeLoss="48.12" rerouteNo="0" devices="tripinfo_veh38" vType="passenger" speedFactor="1.17" vaporized=""/>
    <tripinfo id="veh44" depart="27.00" departLane="1250915720#4_1" departPos="12.51" departSpeed="0.00" departDelay="0.60" arrival="212.00" arrivalLane="-174818022#2_0" arrivalPos="100.40" arrivalSpeed="4.49" duration="185.00" routeLength="1436.99" waitingTime="21.00" waitingCount="2" stopTime="0.00" timeLoss="50.67" rerouteNo="0" devices="tripinfo_veh44" vType="delivery" speedFactor="0.98" vaporized=""/>
    <tripinfo id="veh62" depart="38.00" departLane="43546039#3_1" departPos="26.12" departSpeed="0.00" departDelay="0.80" arrival="212.00" arrivalLane="-383582511#0_0" arrivalPos="95.20" arrivalSpeed="2.15" duration="174.00" routeLength="1312.18" waitingTime="0.00" waitingCount="0" stopTime="0.00" timeLoss="30.08" rerouteNo="0" devices="tripinfo_veh62" vType="passenger" speedFactor="0.90" vaporized=""/>
    <tripinfo id="veh45" depart="27.00" departLane="40330575#1_1" departPos="1.01" departSpeed="0.00" departDelay="0.00" arrival="213.00" arrivalLane="258551297#1_0" arrivalPos="135.94" arrivalSpeed="4.58" duration="186.00" routeLength="1637.86" waitingTime="25.00" waitingCount="1" stopTime="0.00" timeLoss="50.08" rerouteNo="0" devices="tripinfo_veh45" vType="passenger" speedFactor="1.02" vaporized=""/>
    <tripinfo id="veh310" depart="186.00" departLane="43544001#12_1" departPos="55.10" departSpeed="0.00" departDelay="0.00" arrival="213.00" arrivalLane="48778527_1" arrivalPos="56.14" arrivalSpeed="14.57" duration="27.00" routeLength="235.56" waitingTime="0.00" waitingCount="0" stopTime="0.00" timeLoss="9.97" rerouteNo="0" devices="tripinfo_veh310" vType="passenger" speedFactor="1.11" vaporized=""/>
    <tripinfo id="veh143" depart="86.00" departLane="-40265774#0_1" departPos="74.59" departSpeed="0.00" departDelay="0.20" arrival="215.00" arrivalLane="43546648#6_1" arrivalPos="186.87" arrivalSpeed="7.61" duration="129.00" routeLength="1170.44" waitingTime="17.00" waitingCount="2" stopTime="0.00" timeLoss="43.13" rerouteNo="0" devices="tripinfo_veh143" vType="motorcycle" speedFactor="1.02" vaporized=""/>
    <tripinfo id="veh72" depart="44.00" departLane="273834906_1" departPos="14.07" departSpeed="0.00" departDelay="0.80" arrival="218.00" arrivalLane="-48797771#2_1" arrivalPos="26.22" arrivalSpeed="11.90" duration="174.00" routeLength="1174.21" waitingTime="55.00" waitingCount="3" stopTime="0.00" timeLoss="90.06" rerouteNo="0" devices="tripinfo_veh72" vType="passenger" speedFactor="1.05" vaporized=""/>
    <tripinfo id="veh302" depart="182.00" departLane="-48736639#0_1" departPos="38.97" departSpeed="0.00" departDelay="0.80" arrival="218.00" arrivalLane="-48797770_1" arrivalPos="20.27" arrivalSpeed="10.81" duration="36.00" routeLength="275.54" waitingTime="0.00" waitingCount="0" stopTime="0.00" timeLoss="9.80" rerouteNo="0" devices="tripinfo_veh302" vType="passenger" speedFactor="0.86" vaporized=""/>
    <personinfo id="ped25" depart="125.00" type="DEFAULT_PEDTYPE" speedFactor="1.01" duration="95.00" waitingTime="0.00" timeLoss="10.64" traveltime="95.00">
        <walk depart="125.00" departPos="0.00" arrival="220.00" arrivalPos="18.89" duration="95.00" routeLength="118.11" timeLoss="10.64" maxSpeed="1.40"/>
    </personinfo>
    <tripinfo id="veh24" depart="17.00" departLane="-48736624#0_1" departPos="61.62" departSpeed="0.00" departDelay="2.60" arrival="222.00" arrivalLane="992542694_0" arrivalPos="44.94" arrivalSpeed="5.31" duration="205.00" routeLength="2056.71" waitingTime="15.00" waitingCount="1" stopTime="0.00" timeLoss="46.30" rerouteNo="0" devices="tripinfo_veh24" vType="passenger" speedFactor="0.99" vaporized=""/>
    <tripinfo id="veh177" depart="107.00" departLane="176279225#3_1" departPos="9.36" departSpeed="0.00" departDelay="0.80" arrival="223.00" arrivalLane="-945793486#0_0" arrivalPos="6.00" arrivalSpeed="6.03" duration="116.00" routeLength="1205.98" waitingTime="0.00" waitingCount="0" stopTime="0.00" timeLoss="25.72" rerouteNo="0" devices="tripinfo_veh177" vType="motorcycle" speedFactor="1.10" vaporized=""/>
    <tripinfo id="veh270" depart="162.00" departLane="223942064#1_0" departPos="0.27" departSpeed="0.00" departDelay="0.00" arrival="224.00" arrivalLane="647610982#2_1" arrivalPos="11.90" arrivalSpeed="13.18" duration="62.00" routeLength="715.95" waitingTime="0.00" waitingCount="0" stopTime="0.00" timeLoss="10.75" rerouteNo="0" devices="tripinfo_veh270" vType="passenger" speedFactor="1.03" vaporized=""/>
    <tripinfo id="veh4" depart="3.00" departLane="945793491#1_1" departPos="16.82" departSpeed="0.00" departDelay="0.60" arrival="226.00" arrivalLane="-48736607#1_1" arrivalPos="193.73" arrivalSpeed="13.66" duration="223.00" routeLength="1905.36" waitingTime="19.00" waitingCount="1" stopTime="0.00" timeLoss="53.54" rerouteNo="0" devices="tripinfo_veh4" vType="passenger" speedFactor="1.02" vaporized=""/>
    <tripinfo id="veh199" depart="120.00" departLane="-647755347#1_1" departPos="14.21" departSpeed="0.00" departDelay="0.60" arrival="228.00" arrivalLane="48778493#2_1" arrivalPos="44.65" arrivalSpeed="13.27" duration="108.00" routeLength="1075.64" waitingTime="0.00" waitingCount="0" stopTime="0.00" timeLoss="24.35" rerouteNo="0" devices="tripinfo_veh199" vType="emergency" speedFactor="1.00" vaporized=""/>
    <tripinfo id="veh5" depart="3.00" departLane="40330571#2_1" departPos="13.31" departSpeed="0.00" departDelay="0.00" arrival="230.00" arrivalLane="647677163_1" arrivalPos="73.51" arrivalSpeed="14.32" duration="227.00" routeLength="2106.88" waitingTime="46.00" waitingCount="3" stopTime="0.00" timeLoss="78.95" rerouteNo="0" devices="tripinfo_veh5" vType="delivery" speedFactor="1.05" vaporized=""/>
    <tripinfo id="veh96" depart="58.00" departLane="48778517#0_1" departPos="15.48" departSpeed="0.00" departDelay="0.40" arrival="231.00" arrivalLane="-222605087#0_1" arrivalPos="20.52" arrivalSpeed="4.88" duration="173.00" routeLength="1596.39" waitingTime="22.00" waitingCount="1" stopTime="0.00" timeLoss="43.71" rerouteNo="0" devices="tripinfo_veh96" vType="passenger" speedFactor="0.99" vaporized=""/>
    <tripinfo id="veh8" depart="5.00" departLane="-1251292611_1" departPos="1.57" departSpeed="0.00" departDelay="0.20" arrival="233.00" arrivalLane="-48736624#0_1" arrivalPos="112.70" arrivalSpeed="12.44" duration="228.00" routeLength="1902.88" waitingTime="25.00" waitingCount="1" stopTime="0.00" timeLoss="51.08" rerouteNo="0" devices="tripinfo_veh8" vType="passenger" speedFactor="0.90" vaporized=""/>
    <tripinfo id="veh172" depart="104.00" departLane="222609002#1_1" departPos="4.06" departSpeed="0.00" departDelay="0.80" arrival="234.00" arrivalLane="43544179#11_1" arrivalPos="85.20" arrivalSpeed="10.79" duration="130.00" routeLength="1169.89" waitingTime="2.00" waitingCount="1" stopTime="0.00" timeLoss="22.02" rerouteNo="0" devices="tripinfo_veh172" vType="passenger" speedFactor="0.80" vaporized=""/>
    <tripinfo id="veh204" depart="123.00" departLane="-258551297#0_0" departPos="9.74" departSpeed="0.00" departDelay="0.60" arrival="234.00" arrivalLane="43547579#4_1" arrivalPos="247.27" arrivalSpeed="14.10" duration="111.00" routeLength="1395.39" waitingTime="0.00" waitingCount="0" stopTime="0.00" timeLoss="14.32" rerouteNo="0" devices="tripinfo_veh204" vType="passenger" speedFactor="1.07" vaporized=""/>
    <tripinfo id="veh155" depart="93.00" departLane="-143207982#6_1" departPos="6.16" departSpeed="0.00" departDelay="0.00" arrival="235.00" arrivalLane="40299739#3_1" arrivalPos="81.39" arrivalSpeed="13.51" duration="142.00" routeLength="1515.05" waitingTime="1.00" waitingCount="1" stopTime="0.00" timeLoss="28.77" rerouteNo="0" devices="tripinfo_veh155" vType="delivery" speedFactor="0.99" vaporized=""/>