<?xml version="1.0" encoding="UTF-8"?>

<!-- generated on 2025-06-15 22:19:23 by Eclipse SUMO sumo Version 1.22.0
<sumoConfiguration xmlns:xsi="http://www.w3.org/2001/XMLSchema-instance" xsi:noNamespaceSchemaLocation="http://sumo.dlr.de/xsd/sumoConfiguration.xsd">

    <input>
        <net-file value="E:/licenta/oras-mediu/2025-06-05-11-45-23\osm.net.xml"/>
        <route-files value="E:/licenta/oras-mediu/2025-06-05-11-45-23\full.rou.xml,E:/licenta/oras-mediu/2025-06-05-11-45-23\ ped.rou.xml,E:/licenta/oras-mediu/2025-06-05-11-45-23\ truck.rou.xml"/>
        <additional-files value="E:/licenta/oras-mediu/2025-06-05-11-45-23\osm.poly.xml,E:/licenta/oras-mediu/2025-06-05-11-45-23\ vtypes.xml"/>
    </input>

    <output>
        <summary-output value="E:/licenta/oras-mediu/2025-06-05-11-45-23\summary.xml"/>
        <tripinfo-output value="evaluation_run_outputs\baseline_outputs\tripinfo_baseline_ep15.xml"/>
    </output>

    <processing>
        <ignore-route-errors value="true"/>
        <tls.actuated.jam-threshold value="30"/>
    </processing>

    <routing>
        <device.rerouting.adaptation-steps value="18"/>
        <device.rerouting.adaptation-interval value="10"/>
    </routing>

    <report>
        <verbose value="true"/>
        <duration-log.statistics value="true"/>
        <no-step-log value="true"/>
    </report>

    <gui_only>
        <gui-settings-file value="E:/licenta/oras-mediu/2025-06-05-11-45-23\osm.view.xml"/>
    </gui_only>

</sumoConfiguration>
-->

<tripinfos xmlns:xsi="http://www.w3.org/2001/XMLSchema-instance" xsi:noNamespaceSchemaLocation="http://sumo.dlr.de/xsd/tripinfo_file.xsd">
    <tripinfo id="veh27" depart="16.00" departLane="-48778461#1_1" departPos="22.76" departSpeed="0.00" departDelay="0.61" arrival="65.00" arrivalLane="1136301814#1_1" arrivalPos="37.74" arrivalSpeed="12.79" duration="49.00" routeLength="457.13" waitingTime="0.00" waitingCount="0" stopTime="0.00" timeLoss="11.89" rerouteNo="0" devices="tripinfo_veh27" vType="motorcycle" speedFactor="1.02" vaporized=""/>
    <tripinfo id="veh26" depart="15.00" departLane="-48778494#1_1" departPos="15.29" departSpeed="0.00" departDelay="0.18" arrival="69.00" arrivalLane="-92198452#1_1" arrivalPos="116.26" arrivalSpeed="12.93" duration="54.00" routeLength="589.80" waitingTime="0.00" waitingCount="0" stopTime="0.00" timeLoss="9.03" rerouteNo="0" devices="tripinfo_veh26" vType="passenger" speedFactor="0.97" vaporized=""/>
    <tripinfo id="veh107" depart="61.00" departLane="-40266620_1" departPos="7.74" departSpeed="0.00" departDelay="0.01" arrival="91.00" arrivalLane="354252039#1_1" arrivalPos="19.16" arrivalSpeed="13.31" duration="30.00" routeLength="335.71" waitingTime="0.00" waitingCount="0" stopTime="0.00" timeLoss="5.13" rerouteNo="0" devices="tripinfo_veh107" vType="motorcycle" speedFactor="1.04" vaporized=""/>
    <tripinfo id="veh119" depart="68.00" departLane="43547579#0_1" departPos="165.97" departSpeed="0.00" departDelay="0.17" arrival="102.00" arrivalLane="48736639#1_1" arrivalPos="23.89" arrivalSpeed="12.20" duration="34.00" routeLength="353.38" waitingTime="0.00" waitingCount="0" stopTime="0.00" timeLoss="7.44" rerouteNo="0" devices="tripinfo_veh119" vType="motorcycle" speedFactor="1.04" vaporized=""/>
    <tripinfo id="veh116" depart="67.00" departLane="383582493_1" departPos="17.19" departSpeed="0.00" departDelay="0.88" arrival="128.00" arrivalLane="-353939574_0" arrivalPos="189.91" arrivalSpeed="6.71" duration="61.00" routeLength="445.41" waitingTime="0.00" waitingCount="0" stopTime="0.00" timeLoss="6.65" rerouteNo="0" devices="tripinfo_veh116" vType="passenger" speedFactor="1.21" vaporized=""/>
    <tripinfo id="veh22" depart="13.00" departLane="1136301812#0_1" departPos="6.19" departSpeed="0.00" departDelay="0.46" arrival="135.00" arrivalLane="-48778441#2_1" arrivalPos="16.22" arrivalSpeed="9.94" duration="122.00" routeLength="1136.83" waitingTime="0.00" waitingCount="0" stopTime="0.00" timeLoss="23.88" rerouteNo="0" devices="tripinfo_veh22" vType="passenger" speedFactor="0.89" vaporized=""/>
    <tripinfo id="veh29" depart="17.00" departLane="48778464#0_1" departPos="13.11" departSpeed="0.00" departDelay="0.47" arrival="135.00" arrivalLane="859732801#1_1" arrivalPos="25.05" arrivalSpeed="14.83" duration="118.00" routeLength="1262.95" waitingTime="0.00" waitingCount="0" stopTime="0.00" timeLoss="28.12" rerouteNo="0" devices="tripinfo_veh29" vType="passenger" speedFactor="1.10" vaporized=""/>
    <tripinfo id="veh13" depart="8.00" departLane="40236164_1" departPos="102.60" departSpeed="0.00" departDelay="0.59" arrival="138.00" arrivalLane="1136283361_0" arrivalPos="47.88" arrivalSpeed="5.52" duration="130.00" routeLength="1261.68" waitingTime="0.00" waitingCount="0" stopTime="0.00" timeLoss="24.72" rerouteNo="0" devices="tripinfo_veh13" vType="emergency" speedFactor="1.00" vaporized=""/>
    <tripinfo id="veh12" depart="7.00" departLane="-33909936#3_1" departPos="1.17" departSpeed="0.00" departDelay="0.16" arrival="139.00" arrivalLane="945793490#0_1" arrivalPos="50.84" arrivalSpeed="4.25" duration="132.00" routeLength="1123.10" waitingTime="0.00" waitingCount="0" stopTime="0.00" timeLoss="18.26" rerouteNo="0" devices="tripinfo_veh12" vType="delivery" speedFactor="0.97" vaporized=""/>
    <tripinfo id="veh20" depart="12.00" departLane="43547296#1_1" departPos="1.77" departSpeed="0.00" departDelay="0.60" arrival="142.00" arrivalLane="-1205541344_0" arrivalPos="82.96" arrivalSpeed="5.39" duration="130.00" routeLength="1379.12" waitingTime="0.00" waitingCount="0" stopTime="0.00" timeLoss="19.95" rerouteNo="0" devices="tripinfo_veh20" vType="passenger" speedFactor="1.03" vaporized=""/>
    <tripinfo id="veh49" depart="28.00" departLane="1250915720#0_1" departPos="1.72" departSpeed="0.00" departDelay="0.07" arrival="145.00" arrivalLane="-1158942155_1" arrivalPos="54.46" arrivalSpeed="5.11" duration="117.00" routeLength="570.00" waitingTime="0.00" waitingCount="0" stopTime="0.00" timeLoss="14.02" rerouteNo="0" devices="tripinfo_veh49" vType="bicycle" speedFactor="1.00" vaporized=""/>
    <tripinfo id="veh25" depart="15.00" departLane="-48736664#1_1" departPos="33.94" departSpeed="0.00" departDelay="0.75" arrival="146.00" arrivalLane="-256684296_0" arrivalPos="80.07" arrivalSpeed="2.17" duration="131.00" routeLength="1029.36" waitingTime="3.00" waitingCount="1" stopTime="0.00" timeLoss="28.07" rerouteNo="0" devices="tripinfo_veh25" vType="passenger" speedFactor="0.99" vaporized=""/>
    <tripinfo id="veh125" depart="72.00" departLane="43546688#1_1" departPos="34.35" departSpeed="0.00" departDelay="0.75" arrival="147.00" arrivalLane="48736645_1" arrivalPos="132.12" arrivalSpeed="12.49" duration="75.00" routeLength="688.84" waitingTime="0.00" waitingCount="0" stopTime="0.00" timeLoss="15.97" rerouteNo="0" devices="tripinfo_veh125" vType="passenger" speedFactor="0.91" vaporized=""/>
    <tripinfo id="veh0" depart="0.00" departLane="-258551321_1" departPos="119.20" departSpeed="0.00" departDelay="0.00" arrival="150.00" arrivalLane="-40330575#4_1" arrivalPos="66.51" arrivalSpeed="10.95" duration="150.00" routeLength="1274.08" waitingTime="28.00" waitingCount="1" stopTime="0.00" timeLoss="51.32" rerouteNo="0" devices="tripinfo_veh0" vType="motorcycle" speedFactor="0.98" vaporized=""/>
    <tripinfo id="veh225" depart="129.00" departLane="647347140#2_1" departPos="18.94" departSpeed="0.00" departDelay="0.75" arrival="150.00" arrivalLane="43573547#1_1" arrivalPos="25.37" arrivalSpeed="12.24" duration="21.00" routeLength="207.84" waitingTime="0.00" waitingCount="0" stopTime="0.00" timeLoss="3.39" rerouteNo="0" devices="tripinfo_veh225" vType="passenger" speedFactor="0.88" vaporized=""/>
    <tripinfo id="veh64" depart="37.00" departLane="-1136283379#0_1" departPos="17.51" departSpeed="0.00" departDelay="0.52" arrival="152.00" arrivalLane="-40236203#3_1" arrivalPos="78.82" arrivalSpeed="14.67" duration="115.00" routeLength="1177.48" waitingTime="0.00" waitingCount="0" stopTime="0.00" timeLoss="20.79" rerouteNo="0" devices="tripinfo_veh64" vType="passenger" speedFactor="1.08" vaporized=""/>
    <tripinfo id="veh3" depart="2.00" departLane="-43546789#0_1" departPos="8.65" departSpeed="0.00" departDelay="0.29" arrival="154.00" arrivalLane="-E13_1" arrivalPos="78.22" arrivalSpeed="14.95" duration="152.00" routeLength="1534.05" waitingTime="4.00" waitingCount="1" stopTime="0.00" timeLoss="35.16" rerouteNo="0" devices="tripinfo_veh3" vType="passenger" speedFactor="1.08" vaporized=""/>
    <tripinfo id="veh67" depart="39.00" departLane="43546789#0_1" departPos="11.16" departSpeed="0.00" departDelay="0.81" arrival="156.00" arrivalLane="E9_2" arrivalPos="42.23" arrivalSpeed="9.18" duration="117.00" routeLength="1102.74" waitingTime="3.00" waitingCount="2" stopTime="0.00" timeLoss="34.09" rerouteNo="0" devices="tripinfo_veh67" vType="passenger" speedFactor="1.01" vaporized=""/>
    <tripinfo id="veh58" depart="34.00" departLane="43546039#3_1" departPos="9.35" departSpeed="0.00" departDelay="0.94" arrival="164.00" arrivalLane="-945794107_1" arrivalPos="125.84" arrivalSpeed="9.24" duration="130.00" routeLength="1633.39" waitingTime="0.00" waitingCount="0" stopTime="0.00" timeLoss="16.53" rerouteNo="0" devices="tripinfo_veh58" vType="passenger" speedFactor="1.12" vaporized=""/>
    <tripinfo id="veh39" depart="23.00" departLane="-143207979#8_1" departPos="33.75" departSpeed="0.00" departDelay="0.77" arrival="167.00" arrivalLane="859732801#1_1" arrivalPos="25.05" arrivalSpeed="15.67" duration="144.00" routeLength="1814.30" waitingTime="0.00" waitingCount="0" stopTime="0.00" timeLoss="27.73" rerouteNo="0" devices="tripinfo_veh39" vType="passenger" speedFactor="1.17" vaporized=""/>
    <tripinfo id="veh203" depart="116.00" departLane="-43544138#5_1" departPos="31.24" departSpeed="0.00" departDelay="0.29" arrival="169.00" arrivalLane="-43544179#7_1" arrivalPos="45.60" arrivalSpeed="11.83" duration="53.00" routeLength="623.60" waitingTime="0.00" waitingCount="0" stopTime="0.00" timeLoss="9.39" rerouteNo="0" devices="tripinfo_veh203" vType="motorcycle" speedFactor="1.04" vaporized=""/>
    <tripinfo id="veh138" depart="79.00" departLane="43546793_1" departPos="184.71" departSpeed="0.00" departDelay="0.34" arrival="172.00" arrivalLane="-43547256#1_1" arrivalPos="152.01" arrivalSpeed="13.98" duration="93.00" routeLength="1078.32" waitingTime="0.00" waitingCount="0" stopTime="0.00" timeLoss="16.77" rerouteNo="0" devices="tripinfo_veh138" vType="passenger" speedFactor="1.06" vaporized=""/>
    <tripinfo id="veh24" depart="14.00" departLane="48778475#0_1" departPos="33.65" departSpeed="0.00" departDelay="0.32" arrival="176.00" arrivalLane="-43544197#2_1" arrivalPos="42.39" arrivalSpeed="14.88" duration="162.00" routeLength="2085.58" waitingTime="0.00" waitingCount="0" stopTime="0.00" timeLoss="24.83" rerouteNo="0" devices="tripinfo_veh24" vType="passenger" speedFactor="1.12" vaporized=""/>
    <tripinfo id="veh260" depart="149.00" departLane="-258551321_1" departPos="4.32" departSpeed="0.00" departDelay="0.80" arrival="176.00" arrivalLane="984508804_0" arrivalPos="26.89" arrivalSpeed="5.60" duration="27.00" routeLength="243.20" waitingTime="0.00" waitingCount="0" stopTime="0.00" timeLoss="7.76" rerouteNo="0" devices="tripinfo_veh260" vType="passenger" speedFactor="1.13" vaporized=""/>
    <tripinfo id="veh82" depart="47.00" departLane="33913538#7_1" departPos="99.28" departSpeed="0.00" departDelay="0.26" arrival="178.00" arrivalLane="1136301814#1_1" arrivalPos="37.74" arrivalSpeed="14.64" duration="131.00" routeLength="1290.24" waitingTime="22.00" waitingCount="1" stopTime="0.00" timeLoss="43.11" rerouteNo="0" devices="tripinfo_veh82" vType="passenger" speedFactor="1.08" vaporized=""/>
    <tripinfo id="veh92" depart="53.00" departLane="43546789#1_1" departPos="44.11" departSpeed="0.00" departDelay="0.56" arrival="180.00" arrivalLane="-492965073#5_1" arrivalPos="154.22" arrivalSpeed="15.54" duration="127.00" routeLength="1278.05" waitingTime="27.00" waitingCount="1" stopTime="0.00" timeLoss="44.11" rerouteNo="0" devices="tripinfo_veh92" vType="passenger" speedFactor="1.13" vaporized=""/>
    <tripinfo id="veh209" depart="120.00" departLane="-48778486_1" departPos="10.31" departSpeed="0.00" departDelay="0.87" arrival="180.00" arrivalLane="-223883703_0" arrivalPos="83.93" arrivalSpeed="5.11" duration="60.00" routeLength="474.13" waitingTime="0.00" waitingCount="0" stopTime="0.00" timeLoss="11.97" rerouteNo="0" devices="tripinfo_veh209" vType="passenger" speedFactor="0.96" vaporized=""/>
    <tripinfo id="veh91" depart="52.00" departLane="-48778516_1" departPos="156.85" departSpeed="0.00" departDelay="0.13" arrival="182.00" arrivalLane="48778512_1" arrivalPos="67.72" arrivalSpeed="6.45" duration="130.00" routeLength="764.17" waitingTime="0.00" waitingCount="0" stopTime="0.00" timeLoss="12.24" rerouteNo="0" devices="tripinfo_veh91" vType="bicycle" speedFactor="1.18" vaporized=""/>
    <tripinfo id="veh36" depart="21.00" departLane="222609002#2_1" departPos="6.42" departSpeed="0.00" departDelay="0.48" arrival="183.00" arrivalLane="-250295383#5_1" arrivalPos="53.03" arrivalSpeed="12.06" duration="162.00" routeLength="1654.78" waitingTime="0.00" waitingCount="0" stopTime="0.00" timeLoss="21.95" rerouteNo="0" devices="tripinfo_veh36" vType="passenger" speedFactor="0.95" vaporized=""/>
    <tripinfo id="veh48" depart="28.00" departLane="223883703_0" departPos="71.88" departSpeed="0.00" departDelay="0.64" arrival="184.00" arrivalLane="43546039#0_1" arrivalPos="195.13" arrivalSpeed="15.07" duration="156.00" routeLength="2148.29" waitingTime="0.00" waitingCount="0" stopTime="0.00" timeLoss="14.27" rerouteNo="0" devices="tripinfo_veh48" vType="passenger" speedFactor="1.12" vaporized=""/>
    <tripinfo id="veh100" depart="57.00" departLane="-1364605473_0" departPos="13.30" departSpeed="0.00" departDelay="0.00" arrival="184.00" arrivalLane="48778453_1" arrivalPos="29.18" arrivalSpeed="12.17" duration="127.00" routeLength="1095.34" waitingTime="23.00" waitingCount="1" stopTime="0.00" timeLoss="40.83" rerouteNo="0" devices="tripinfo_veh100" vType="passenger" speedFactor="1.00" vaporized=""/>
    <tripinfo id="veh195" depart="112.00" departLane="40266908#1_1" departPos="16.13" departSpeed="0.00" departDelay="0.85" arrival="186.00" arrivalLane="-273835688_1" arrivalPos="177.49" arrivalSpeed="13.66" duration="74.00" routeLength="746.92" waitingTime="0.00" waitingCount="0" stopTime="0.00" timeLoss="16.68" rerouteNo="0" devices="tripinfo_veh195" vType="emergency" speedFactor="1.00" vaporized=""/>
    <tripinfo id="veh60" depart="35.00" departLane="945794111_1" departPos="11.71" departSpeed="0.00" departDelay="0.80" arrival="191.00" arrivalLane="984521611#0_0" arrivalPos="6.07" arrivalSpeed="5.05" duration="156.00" routeLength="1533.30" waitingTime="0.00" waitingCount="0" stopTime="0.00" timeLoss="24.73" rerouteNo="0" devices="tripinfo_veh60" vType="passenger" speedFactor="0.92" vaporized=""/>
    <tripinfo id="veh50" depart="29.00" departLane="48778487#1_1" departPos="166.66" departSpeed="0.00" departDelay="0.50" arrival="193.00" arrivalLane="258551279_0" arrivalPos="179.06" arrivalSpeed="5.27" duration="164.00" routeLength="1433.97" waitingTime="0.00" waitingCount="0" stopTime="0.00" timeLoss="34.35" rerouteNo="0" devices="tripinfo_veh50" vType="delivery" speedFactor="0.99" vaporized=""/>
    <tripinfo id="veh158" depart="91.00" departLane="48778487#1_1" departPos="40.99" departSpeed="0.00" departDelay="0.94" arrival="195.00" arrivalLane="-67712683_1" arrivalPos="77.22" arrivalSpeed="14.75" duration="104.00" routeLength="1287.94" waitingTime="0.00" waitingCount="0" stopTime="0.00" timeLoss="19.75" rerouteNo="0" devices="tripinfo_veh158" vType="passenger" speedFactor="1.15" vaporized=""/>
    <tripinfo id="veh297" depart="170.00" departLane="304695350#2_1" departPos="6.19" departSpeed="0.00" departDelay="0.71" arrival="196.00" arrivalLane="40314853#3_1" arrivalPos="25.28" arrivalSpeed="12.00" duration="26.00" routeLength="118.16" waitingTime="6.00" waitingCount="1" stopTime="0.00" timeLoss="16.49" rerouteNo="0" devices="tripinfo_veh297" vType="motorcycle" speedFactor="1.12" vaporized=""/>
    <tripinfo id="veh245" depart="140.00" departLane="848060815_1" departPos="86.17" departSpeed="0.00" departDelay="0.35" arrival="197.00" arrivalLane="40299276#1_1" arrivalPos="70.79" arrivalSpeed="12.67" duration="57.00" routeLength="604.76" waitingTime="0.00" waitingCount="0" stopTime="0.00" timeLoss="9.58" rerouteNo="0" devices="tripinfo_veh245" vType="passenger" speedFactor="0.97" vaporized=""/>
    <personinfo id="ped8" depart="40.00" type="DEFAULT_PEDTYPE" speedFactor="0.76" duration="158.00" waitingTime="0.00" timeLoss="18.64" traveltime="158.00">
        <walk depart="40.00" departPos="0.00" arrival="198.00" arrivalPos="8.83" duration="158.00" routeLength="147.93" timeLoss="18.64" maxSpeed="1.06"/>
    </personinfo>
    <tripinfo id="veh66" depart="38.00" departLane="40305706#1_1" departPos="52.37" departSpeed="0.00" departDelay="0.38" arrival="200.00" arrivalLane="-1250915720#5_1" arrivalPos="1.24" arrivalSpeed="4.70" duration="162.00" routeLength="1354.43" waitingTime="5.00" waitingCount="2" stopTime="0.00" timeLoss="48.08" rerouteNo="0" devices="tripinfo_veh66" vType="passenger" speedFactor="0.98" vaporized=""/>
    <tripinfo id="veh132" depart="76.00" departLane="-1015948619_0" departPos="13.89" departSpeed="0.00" departDelay="0.76" arrival="200.00" arrivalLane="289113877#1_1" arrivalPos="149.37" arrivalSpeed="13.10" duration="124.00" routeLength="1436.98" waitingTime="0.00" waitingCount="0" stopTime="0.00" timeLoss="11.81" rerouteNo="0" devices="tripinfo_veh132" vType="passenger" speedFactor="0.97" vaporized=""/>
    <tripinfo id="veh163" depart="93.00" departLane="-250295380#0_1" departPos="4.56" departSpeed="0.00" departDelay="0.09" arrival="208.00" arrivalLane="984508804_0" arrivalPos="26.89" arrivalSpeed="5.27" duration="115.00" routeLength="1131.83" waitingTime="4.00" waitingCount="1" stopTime="0.00" timeLoss="29.61" rerouteNo="0" devices="tripinfo_veh163" vType="passenger" speedFactor="1.03" vaporized=""/>
    <tripinfo id="veh196" depart="112.00" departLane="43546109_1" departPos="116.35" departSpeed="0.00" departDelay="0.28" arrival="208.00" arrivalLane="1136289991_1" arrivalPos="31.14" arrivalSpeed="8.65" duration="96.00" routeLength="1077.36" waitingTime="0.00" waitingCount="0" stopTime="0.00" timeLoss="20.04" rerouteNo="0" devices="tripinfo_veh196" vType="passenger" speedFactor="1.10" vaporized=""/>
    <tripinfo id="veh59" depart="34.00" departLane="-1136301818_1" departPos="31.68" departSpeed="0.00" departDelay="0.37" arrival="209.00" arrivalLane="-43546109_1" arrivalPos="180.58" arrivalSpeed="14.20" duration="175.00" routeLength="1677.66" waitingTime="2.00" waitingCount="1" stopTime="0.00" timeLoss="47.54" rerouteNo="0" devices="tripinfo_veh59" vType="passenger" speedFactor="1.03" vaporized=""/>
    <tripinfo id="veh77" depart="44.00" departLane="-E13_2" departPos="72.42" departSpeed="0.00" departDelay="0.11" arrival="210.00" arrivalLane="-43544184#1_1" arrivalPos="0.22" arrivalSpeed="8.93" duration="166.00" routeLength="1991.69" waitingTime="0.00" waitingCount="0" stopTime="0.00" timeLoss="19.09" rerouteNo="0" devices="tripinfo_veh77" vType="emergency" speedFactor="1.00" vaporized=""/>
    <tripinfo id="veh71" depart="41.00" departLane="48778480#5_1" departPos="93.27" departSpeed="0.00" departDelay="0.53" arrival="215.00" arrivalLane="859734513_0" arrivalPos="94.32" arrivalSpeed="5.62" duration="174.00" routeLength="1609.93" waitingTime="14.00" waitingCount="2" stopTime="0.00" timeLoss="45.27" rerouteNo="0" devices="tripinfo_veh71" vType="passenger" speedFactor="1.05" vaporized=""/>
    <tripinfo id="veh9" depart="6.00" departLane="40265775#1_1" departPos="20.20" departSpeed="0.00" departDelay="0.87" arrival="216.00" arrivalLane="-1250915724#0_1" arrivalPos="12.38" arrivalSpeed="3.91" duration="210.00" routeLength="1344.24" waitingTime="45.00" waitingCount="2" stopTime="0.00" timeLoss="77.48" rerouteNo="0" devices="tripinfo_veh9" vType="passenger" speedFactor="0.90" vaporized=""/>
    <tripinfo id="veh182" depart="104.00" departLane="48797765#1_1" departPos="18.04" departSpeed="0.00" departDelay="0.26" arrival="216.00" arrivalLane="43546570#0_1" arrivalPos="43.31" arrivalSpeed="12.03" duration="112.00" routeLength="618.47" waitingTime="48.00" waitingCount="1" stopTime="0.00" timeLoss="64.37" rerouteNo="0" devices="tripinfo_veh182" vType="motorcycle" speedFactor="1.00" vaporized=""/>
    <tripinfo id="veh349" depart="199.00" departLane="-859734514#0_0" departPos="27.91" departSpeed="0.00" departDelay="0.07" arrival="218.00" arrivalLane="354259933#3_1" arrivalPos="57.36" arrivalSpeed="13.65" duration="19.00" routeLength="188.26" waitingTime="0.00" waitingCount="0" stopTime="0.00" timeLoss="3.04" rerouteNo="0" devices="tripinfo_veh349" vType="delivery" speedFactor="0.98" vaporized=""/>
    <tripinfo id="veh41" depart="24.00" departLane="-222605084#2_1" departPos="0.15" departSpeed="0.00" departDelay="0.63" arrival="219.00" arrivalLane="-48778441#2_1" arrivalPos="16.22" arrivalSpeed="13.11" duration="195.00" routeLength="1682.19" waitingTime="19.00" waitingCount="2" stopTime="0.00" timeLoss="55.31" rerouteNo="0" devices="tripinfo_veh41" vType="motorcycle" speedFactor="1.00" vaporized=""/>
    <tripinfo id="veh47" depart="27.00" departLane="-43547296#0_1" departPos="96.25" departSpeed="0.00" departDelay="0.21" arrival="222.00" arrivalLane="222605085#1_1" arrivalPos="200.56" arrivalSpeed="12.91" duration="195.00" routeLength="1740.38" waitingTime="30.00" waitingCount="2" stopTime="0.00" timeLoss="65.64" rerouteNo="0" devices="tripinfo_veh47" vType="passenger" speedFactor="1.00" vaporized=""/>
    <tripinfo id="veh32" depart="19.00" departLane="-48736655_1" departPos="0.82" departSpeed="0.00" departDelay="0.76" arrival="223.00" arrivalLane="43573573#0_1" arrivalPos="20.39" arrivalSpeed="12.57" duration="204.00" routeLength="2412.67" waitingTime="3.00" waitingCount="1" stopTime="0.00" timeLoss="36.99" rerouteNo="0" devices="tripinfo_veh32" vType="passenger" speedFactor="1.07" vaporized=""/>
    <personinfo id="ped1" depart="5.00" type="DEFAULT_PEDTYPE" speedFactor="0.83" duration="221.00" waitingTime="0.00" timeLoss="37.52" traveltime="221.00">
        <walk depart="5.00" departPos="0.00" arrival="226.00" arrivalPos="21.20" duration="221.00" routeLength="211.76" timeLoss="37.52" maxSpeed="1.15"/>
    </personinfo>
    <tripinfo id="veh283" depart="162.00" departLane="530103975#1_1" departPos="10.07" departSpeed="0.00" departDelay="0.69" arrival="226.00" arrivalLane="48736638#1_1" arrivalPos="89.48" arrivalSpeed="13.94" duration="64.00" routeLength="533.76" waitingTime="0.00" waitingCount="0" stopTime="0.00" timeLoss="13.16" rerouteNo="0" devices="tripinfo_veh283" vType="passenger" speedFactor="1.02" vaporized=""/>
    <tripinfo id="veh361" depart="206.00" departLane="92198453#3_1" departPos="0.05" departSpeed="0.00" departDelay="0.23" arrival="228.00" arrivalLane="-470210923#3_2" arrivalPos="33.17" arrivalSpeed="13.53" duration="22.00" routeLength="213.50" waitingTime="0.00" waitingCount="0" stopTime="0.00" timeLoss="6.04" rerouteNo="0" devices="tripinfo_veh361" vType="passenger" speedFactor="1.03" vaporized=""/>
    <tripinfo id="veh44" depart="26.00" departLane="-470210923#3_2" departPos="22.40" departSpeed="0.00" departDelay="0.92" arrival="230.00" arrivalLane="43546039#3_1" arrivalPos="47.87" arrivalSpeed="13.05" duration="204.00" routeLength="2307.60" waitingTime="0.00" waitingCount="0" stopTime="0.00" timeLoss="28.94" rerouteNo="0" devices="tripinfo_veh44" vType="delivery" speedFactor="0.98" vaporized=""/>
    <tripinfo id="veh80" depart="46.00" departLane="-33909936#2_1" departPos="51.97" departSpeed="0.00" departDelay="0.40" arrival="240.00" arrivalLane="43544624#3_1" arrivalPos="179.18" arrivalSpeed="14.68" duration="194.00" routeLength="2055.30" waitingTime="15.00" waitingCount="1" stopTime="0.00" timeLoss="48.59" rerouteNo="0" devices="tripinfo_veh80" vType="passenger" speedFactor="1.06" vaporized=""/>
    <tripinfo id="veh166" depart="95.00" departLane="40236220#0_1" departPos="6.38" departSpeed="0.00" departDelay="0.38" arrival="243.00" arrivalLane="143207979#2_1" arrivalPos="38.81" arrivalSpeed="12.63" duration="148.00" routeLength="1723.52" waitingTime="0.00" waitingCount="0" stopTime="0.00" timeLoss="20.47" rerouteNo="0" devices="tripinfo_veh166" vType="emergency" speedFactor="1.00" vaporized=""/>
    <tripinfo id="veh127" depart="73.00" departLane="43546789#0_1" departPos="8.22" departSpeed="0.00" departDelay="0.61" arrival="244.00" arrivalLane="-33909936#1_1" arrivalPos="133.03" arrivalSpeed="12.19" duration="171.00" routeLength="1696.99" waitingTime="4.00" waitingCount="1" stopTime="0.00" timeLoss="27.69" rerouteNo="0" devices="tripinfo_veh127" vType="passenger" speedFactor="0.88" vaporized=""/>
    <tripinfo id="veh52" depart="30.00" departLane="859726677#0_1" departPos="0.04" departSpeed="0.00" departDelay="0.36" arrival="245.00" arrivalLane="945793486#1_0" arrivalPos="46.02" arrivalSpeed="4.07" duration="215.00" routeLength="2362.85" waitingTime="0.00" waitingCount="0" stopTime="0.00" timeLoss="20.85" rerouteNo="0" devices="tripinfo_veh52" vType="passenger" speedFactor="0.96" vaporized=""/>
    <tripinfo id="veh53" depart="31.00" departLane="996984235_0" departPos="13.31" departSpeed="0.00" departDelay="0.79" arrival="247.00" arrivalLane="48736605_1" arrivalPos="236.72" arrivalSpeed="11.48" duration="216.00" routeLength="2457.03" waitingTime="0.00" waitingCount="0" stopTime="0.00" timeLoss="16.70" rerouteNo="0" devices="tripinfo_veh53" vType="passenger" speedFactor="0.91" vaporized=""/>
    <tripinfo id="veh65" depart="38.00" departLane="-43546105#2_1" departPos="10.26" departSpeed="0.00" departDelay="0.95" arrival="247.00" arrivalLane="-E10_1" arrivalPos="114.86" arrivalSpeed="13.00" duration="209.00" routeLength="1745.49" waitingTime="48.00" waitingCount="2" stopTime="0.00" timeLoss="77.47" rerouteNo="0" devices="tripinfo_veh65" vType="passenger" speedFactor="0.98" vaporized=""/>
    <tripinfo id="veh170" depart="97.00" departLane="-1364605473_0" departPos="11.69" departSpeed="0.00" departDelay="0.10" arrival="247.00" arrivalLane="-43546648#1_1" arrivalPos="105.30" arrivalSpeed="13.21" duration="150.00" routeLength="1637.14" waitingTime="0.00" waitingCount="0" stopTime="0.00" timeLoss="22.21" rerouteNo="0" devices="tripinfo_veh170" vType="passenger" speedFactor="0.98" vaporized=""/>
    <tripinfo id="veh322" depart="185.00" departLane="40236203#3_1" departPos="15.57" departSpeed="0.00" departDelay="1.46" arrival="248.00" arrivalLane="48736645_1" arrivalPos="132.12" arrivalSpeed="16.44" duration="63.00" routeLength="742.85" waitingTime="0.00" waitingCount="0" stopTime="0.00" timeLoss="15.43" rerouteNo="0" devices="tripinfo_veh322" vType="passenger" speedFactor="1.19" vaporized=""/>
    <tripinfo id="veh84" depart="48.00" departLane="859728208#0_0" departPos="12.65" departSpeed="0.00" departDelay="0.12" arrival="249.00" arrivalLane="43546105#0_1" arrivalPos="198.99" arrivalSpeed="12.54" duration="201.00" routeLength="1952.55" waitingTime="0.00" waitingCount="0" stopTime="0.00" timeLoss="36.46" rerouteNo="0" devices="tripinfo_veh84" vType="passenger" speedFactor="0.98" vaporized=""/>
    <tripinfo id="veh150" depart="86.00" departLane="-48778485#1_1" departPos="2.58" departSpeed="0.00" departDelay="0.50" arrival="249.00" arrivalLane="1136289991_1" arrivalPos="31.14" arrivalSpeed="6.85" duration="163.00" routeLength="1211.01" waitingTime="33.00" waitingCount="1" stopTime="0.00" timeLoss="57.68" rerouteNo="0" devices="tripinfo_veh150" vType="passenger" speedFactor="0.89" vaporized=""/>
    <tripinfo id="veh21" depart="12.00" departLane="-48736624#2_1" departPos="0.30" departSpeed="0.00" departDelay="0.03" arrival="250.00" arrivalLane="-48778517#0_1" arrivalPos="43.62" arrivalSpeed="8.52" duration="238.00" routeLength="2842.63" waitingTime="12.00" waitingCount="2" stopTime="0.00" timeLoss="49.68" rerouteNo="0" devices="tripinfo_veh21" vType="passenger" speedFactor="1.13" vaporized=""/>
    <tripinfo id="veh94" depart="54.00" departLane="-40334244#3_1" departPos="152.69" departSpeed="0.00" departDelay="0.42" arrival="250.00" arrivalLane="48736620#6_1" arrivalPos="3.95" arrivalSpeed="12.48" duration="196.00" routeLength="1473.35" waitingTime="38.00" waitingCount="3" stopTime="0.00" timeLoss="81.73" rerouteNo="0" devices="tripinfo_veh94" vType="motorcycle" speedFactor="0.98" vaporized=""/>
    <tripinfo id="veh241" depart="138.00" departLane="945794111_1" departPos="36.23" departSpeed="0.00" departDelay="0.63" arrival="251.00" arrivalLane="859734514#1_0" arrivalPos="56.51" arrivalSpeed="4.66" duration="113.00" routeLength="848.53" waitingTime="13.00" waitingCount="1" stopTime="0.00" timeLoss="34.49" rerouteNo="0" devices="tripinfo_veh241" vType="passenger" speedFactor="0.98" vaporized=""/>
    <tripinfo id="veh108" depart="62.00" departLane="859728208#0_0" departPos="17.84" departSpeed="0.00" departDelay="0.44" arrival="253.00" arrivalLane="-43546105#1_1" arrivalPos="277.53" arrivalSpeed="13.90" duration="191.00" routeLength="2161.75" waitingTime="0.00" waitingCount="0" stopTime="0.00" timeLoss="18.99" rerouteNo="0" devices="tripinfo_veh108" vType="passenger" speedFactor="1.01" vaporized=""/>
    <personinfo id="ped9" depart="45.00" type="DEFAULT_PEDTYPE" speedFactor="1.06" duration="209.00" waitingTime="0.00" timeLoss="20.78" traveltime="209.00">
        <walk depart="45.00" departPos="0.00" arrival="254.00" arrivalPos="7.20" duration="209.00" routeLength="278.15" timeLoss="20.78" maxSpeed="1.48"/>
    </personinfo>