<?xml version="1.0" encoding="UTF-8"?>

<!-- generated on 2025-06-15 21:37:37 by Eclipse SUMO sumo Version 1.22.0
<sumoConfiguration xmlns:xsi="http://www.w3.org/2001/XMLSchema-instance" xsi:noNamespaceSchemaLocation="http://sumo.dlr.de/xsd/sumoConfiguration.xsd">

    <input>
        <net-file value="E:/licenta/oras-mediu/2025-06-05-11-45-23\osm.net.xml"/>
        <route-files value="E:/licenta/oras-mediu/2025-06-05-11-45-23\full.rou.xml,E:/licenta/oras-mediu/2025-06-05-11-45-23\ ped.rou.xml,E:/licenta/oras-mediu/2025-06-05-11-45-23\ truck.rou.xml"/>
        <additional-files value="E:/licenta/oras-mediu/2025-06-05-11-45-23\osm.poly.xml,E:/licenta/oras-mediu/2025-06-05-11-45-23\ vtypes.xml"/>
    </input>

    <output>
        <summary-output value="E:/licenta/oras-mediu/2025-06-05-11-45-23\summary.xml"/>
        <tripinfo-output value="evaluation_run_outputs\baseline_outputs\tripinfo_baseline_ep4.xml"/>
    </output>

    <processing>
        <ignore-route-errors value="true"/>
        <tls.actuated.jam-threshold value="30"/>
    </processing>

    <routing>
        <device.rerouting.adaptation-steps value="18"/>
        <device.rerouting.adaptation-interval value="10"/>
    </routing>

    <report>
        <verbose value="true"/>
        <duration-log.statistics value="true"/>
        <no-step-log value="true"/>
    </report>

    <gui_only>
        <gui-settings-file value="E:/licenta/oras-mediu/2025-06-05-11-45-23\osm.view.xml"/>
    </gui_only>

</sumoConfiguration>
-->

<tripinfos xmlns:xsi="http://www.w3.org/2001/XMLSchema-instance" xsi:noNamespaceSchemaLocation="http://sumo.dlr.de/xsd/tripinfo_file.xsd">
    <tripinfo id="veh24" depart="18.00" departLane="222605087#3_1" departPos="1.59" departSpeed="0.00" departDelay="0.72" arrival="61.00" arrivalLane="-945793490#1_1" arrivalPos="16.18" arrivalSpeed="6.11" duration="43.00" routeLength="237.36" waitingTime="0.00" waitingCount="0" stopTime="0.00" timeLoss="5.86" rerouteNo="0" devices="tripinfo_veh24" vType="passenger" speedFactor="1.15" vaporized=""/>
    <tripinfo id="veh26" depart="19.00" departLane="40329447_1" departPos="12.81" departSpeed="0.00" departDelay="0.28" arrival="88.00" arrivalLane="258551317_1" arrivalPos="85.97" arrivalSpeed="12.85" duration="69.00" routeLength="637.26" waitingTime="0.00" waitingCount="0" stopTime="0.00" timeLoss="19.46" rerouteNo="0" devices="tripinfo_veh26" vType="passenger" speedFactor="0.99" vaporized=""/>
    <tripinfo id="veh50" depart="36.00" departLane="43546648#5_1" departPos="3.52" departSpeed="0.00" departDelay="0.00" arrival="99.00" arrivalLane="40306162#1_1" arrivalPos="38.73" arrivalSpeed="14.89" duration="63.00" routeLength="614.38" waitingTime="0.00" waitingCount="0" stopTime="0.00" timeLoss="18.62" rerouteNo="0" devices="tripinfo_veh50" vType="passenger" speedFactor="1.12" vaporized=""/>
    <tripinfo id="veh30" depart="22.00" departLane="383582512#1_0" departPos="9.72" departSpeed="0.00" departDelay="0.40" arrival="103.00" arrivalLane="43544202#1_1" arrivalPos="96.02" arrivalSpeed="12.35" duration="81.00" routeLength="836.75" waitingTime="0.00" waitingCount="0" stopTime="0.00" timeLoss="12.84" rerouteNo="0" devices="tripinfo_veh30" vType="passenger" speedFactor="0.94" vaporized=""/>
    <tripinfo id="veh18" depart="13.00" departLane="-48778521#0_1" departPos="11.71" departSpeed="0.00" departDelay="0.04" arrival="111.00" arrivalLane="-43546053#1_1" arrivalPos="96.08" arrivalSpeed="11.74" duration="98.00" routeLength="922.79" waitingTime="0.00" waitingCount="0" stopTime="0.00" timeLoss="15.75" rerouteNo="0" devices="tripinfo_veh18" vType="passenger" speedFactor="0.89" vaporized=""/>
    <tripinfo id="veh8" depart="6.00" departLane="383582511#0_0" departPos="43.01" departSpeed="0.00" departDelay="0.24" arrival="117.00" arrivalLane="92198453#3_1" arrivalPos="0.20" arrivalSpeed="11.78" duration="111.00" routeLength="929.70" waitingTime="0.00" waitingCount="0" stopTime="0.00" timeLoss="14.73" rerouteNo="0" devices="tripinfo_veh8" vType="passenger" speedFactor="0.92" vaporized=""/>
    <tripinfo id="veh6" depart="5.00" departLane="-43544184#1_1" departPos="0.16" departSpeed="0.00" departDelay="0.68" arrival="120.00" arrivalLane="-92198452#2_1" arrivalPos="56.65" arrivalSpeed="12.98" duration="115.00" routeLength="1422.89" waitingTime="0.00" waitingCount="0" stopTime="0.00" timeLoss="12.51" rerouteNo="0" devices="tripinfo_veh6" vType="passenger" speedFactor="1.02" vaporized=""/>
    <tripinfo id="veh114" depart="83.00" departLane="48736620#0_1" departPos="19.92" departSpeed="0.00" departDelay="0.92" arrival="120.00" arrivalLane="48736655_1" arrivalPos="17.43" arrivalSpeed="10.29" duration="37.00" routeLength="327.94" waitingTime="0.00" waitingCount="0" stopTime="0.00" timeLoss="12.45" rerouteNo="0" devices="tripinfo_veh114" vType="delivery" speedFactor="1.06" vaporized=""/>
    <tripinfo id="veh154" depart="112.00" departLane="-222609002#3_1" departPos="84.73" departSpeed="0.00" departDelay="1.12" arrival="121.00" arrivalLane="-222609002#1_1" arrivalPos="24.71" arrivalSpeed="14.09" duration="9.00" routeLength="75.00" waitingTime="0.00" waitingCount="0" stopTime="0.00" timeLoss="3.25" rerouteNo="0" devices="tripinfo_veh154" vType="passenger" speedFactor="1.07" vaporized=""/>
    <tripinfo id="veh40" depart="29.00" departLane="-43544184#1_1" departPos="0.13" departSpeed="0.00" departDelay="0.20" arrival="126.00" arrivalLane="-222609002#4_1" arrivalPos="52.31" arrivalSpeed="13.61" duration="97.00" routeLength="1080.44" waitingTime="0.00" waitingCount="0" stopTime="0.00" timeLoss="20.27" rerouteNo="0" devices="tripinfo_veh40" vType="passenger" speedFactor="1.06" vaporized=""/>
    <tripinfo id="veh14" depart="11.00" departLane="-492965073#6_2" departPos="0.06" departSpeed="0.00" departDelay="0.92" arrival="133.00" arrivalLane="40236232#1_1" arrivalPos="114.84" arrivalSpeed="13.35" duration="122.00" routeLength="1052.15" waitingTime="0.00" waitingCount="0" stopTime="0.00" timeLoss="37.96" rerouteNo="0" devices="tripinfo_veh14" vType="emergency" speedFactor="1.00" vaporized=""/>
    <tripinfo id="veh56" depart="41.00" departLane="-48778516_1" departPos="6.08" departSpeed="0.00" departDelay="0.68" arrival="135.00" arrivalLane="48778485#1_1" arrivalPos="18.27" arrivalSpeed="11.78" duration="94.00" routeLength="1016.34" waitingTime="0.00" waitingCount="0" stopTime="0.00" timeLoss="18.93" rerouteNo="0" devices="tripinfo_veh56" vType="passenger" speedFactor="1.02" vaporized=""/>
    <tripinfo id="veh158" depart="114.00" departLane="859734513_0" departPos="26.33" departSpeed="0.00" departDelay="0.24" arrival="135.00" arrivalLane="-945794108_1" arrivalPos="20.90" arrivalSpeed="8.87" duration="21.00" routeLength="124.36" waitingTime="0.00" waitingCount="0" stopTime="0.00" timeLoss="4.54" rerouteNo="0" devices="tripinfo_veh158" vType="passenger" speedFactor="1.15" vaporized=""/>
    <personinfo id="ped1" depart="5.00" type="DEFAULT_PEDTYPE" speedFactor="0.83" duration="134.00" waitingTime="0.00" timeLoss="14.26" traveltime="134.00">
        <walk depart="5.00" departPos="0.00" arrival="139.00" arrivalPos="36.47" duration="134.00" routeLength="138.20" timeLoss="14.26" maxSpeed="1.15"/>
    </personinfo>
    <tripinfo id="veh102" depart="74.00" departLane="-48778475#1_1" departPos="3.16" departSpeed="0.00" departDelay="0.56" arrival="149.00" arrivalLane="48797771#0_1" arrivalPos="26.57" arrivalSpeed="8.32" duration="75.00" routeLength="651.41" waitingTime="0.00" waitingCount="0" stopTime="0.00" timeLoss="28.19" rerouteNo="0" devices="tripinfo_veh102" vType="passenger" speedFactor="1.12" vaporized=""/>
    <tripinfo id="veh166" depart="120.00" departLane="40314853#3_1" departPos="24.10" departSpeed="0.00" departDelay="0.48" arrival="154.00" arrivalLane="E26_2" arrivalPos="166.60" arrivalSpeed="13.59" duration="34.00" routeLength="376.17" waitingTime="0.00" waitingCount="0" stopTime="0.00" timeLoss="5.01" rerouteNo="0" devices="tripinfo_veh166" vType="emergency" speedFactor="1.00" vaporized=""/>
    <tripinfo id="veh73" depart="53.00" departLane="-40314876_1" departPos="31.50" departSpeed="0.00" departDelay="0.44" arrival="156.00" arrivalLane="40299241#2_1" arrivalPos="144.50" arrivalSpeed="14.60" duration="103.00" routeLength="959.35" waitingTime="13.00" waitingCount="1" stopTime="0.00" timeLoss="34.07" rerouteNo="0" devices="tripinfo_veh73" vType="passenger" speedFactor="1.06" vaporized=""/>
    <tripinfo id="veh46" depart="34.00" departLane="-43546688#0_1" departPos="6.41" departSpeed="0.00" departDelay="0.88" arrival="158.00" arrivalLane="859729932_0" arrivalPos="83.63" arrivalSpeed="2.80" duration="124.00" routeLength="974.78" waitingTime="0.00" waitingCount="0" stopTime="0.00" timeLoss="27.21" rerouteNo="0" devices="tripinfo_veh46" vType="motorcycle" speedFactor="0.90" vaporized=""/>
    <tripinfo id="veh95" depart="69.00" departLane="48778518_1" departPos="14.85" departSpeed="0.00" departDelay="0.60" arrival="159.00" arrivalLane="-48778498#2_1" arrivalPos="98.02" arrivalSpeed="11.62" duration="90.00" routeLength="873.33" waitingTime="2.00" waitingCount="1" stopTime="0.00" timeLoss="20.59" rerouteNo="0" devices="tripinfo_veh95" vType="motorcycle" speedFactor="0.94" vaporized=""/>
    <tripinfo id="veh130" depart="94.00" departLane="1136284448_1" departPos="20.37" departSpeed="0.00" departDelay="0.40" arrival="160.00" arrivalLane="984508802_0" arrivalPos="57.38" arrivalSpeed="5.24" duration="66.00" routeLength="568.58" waitingTime="0.00" waitingCount="0" stopTime="0.00" timeLoss="17.45" rerouteNo="0" devices="tripinfo_veh130" vType="passenger" speedFactor="1.13" vaporized=""/>
    <tripinfo id="veh39" depart="29.00" departLane="-1205541343#1_1" departPos="22.14" departSpeed="0.00" departDelay="0.92" arrival="170.00" arrivalLane="-383582511#0_0" arrivalPos="95.20" arrivalSpeed="1.26" duration="141.00" routeLength="858.66" waitingTime="0.00" waitingCount="0" stopTime="0.00" timeLoss="25.59" rerouteNo="0" devices="tripinfo_veh39" vType="passenger" speedFactor="0.88" vaporized=""/>
    <tripinfo id="veh69" depart="50.00" departLane="-40265774#1_2" departPos="36.53" departSpeed="0.00" departDelay="0.32" arrival="173.00" arrivalLane="-48778518_1" arrivalPos="22.20" arrivalSpeed="7.33" duration="123.00" routeLength="1294.85" waitingTime="0.00" waitingCount="0" stopTime="0.00" timeLoss="19.73" rerouteNo="0" devices="tripinfo_veh69" vType="motorcycle" speedFactor="0.94" vaporized=""/>
    <tripinfo id="veh0" depart="0.00" departLane="1135856746#1_1" departPos="123.02" departSpeed="0.00" departDelay="0.00" arrival="180.00" arrivalLane="-859726677#0_1" arrivalPos="35.20" arrivalSpeed="4.58" duration="180.00" routeLength="1479.74" waitingTime="0.00" waitingCount="0" stopTime="0.00" timeLoss="34.34" rerouteNo="0" devices="tripinfo_veh0" vType="motorcycle" speedFactor="0.98" vaporized=""/>
    <tripinfo id="veh84" depart="61.00" departLane="48736620#3_2" departPos="4.18" departSpeed="0.00" departDelay="0.52" arrival="181.00" arrivalLane="1135854210_1" arrivalPos="13.11" arrivalSpeed="4.87" duration="120.00" routeLength="1117.48" waitingTime="15.00" waitingCount="1" stopTime="0.00" timeLoss="34.31" rerouteNo="0" devices="tripinfo_veh84" vType="passenger" speedFactor="0.98" vaporized=""/>
    <tripinfo id="veh172" depart="124.00" departLane="-40269009#0_1" departPos="7.00" departSpeed="0.00" departDelay="0.16" arrival="186.00" arrivalLane="-898519021_1" arrivalPos="62.05" arrivalSpeed="13.31" duration="62.00" routeLength="602.64" waitingTime="0.00" waitingCount="0" stopTime="0.00" timeLoss="14.43" rerouteNo="0" devices="tripinfo_veh172" vType="passenger" speedFactor="0.98" vaporized=""/>
    <tripinfo id="veh12" depart="9.00" departLane="-984508803_0" departPos="13.28" departSpeed="0.00" departDelay="0.36" arrival="187.00" arrivalLane="-E12.34_1" arrivalPos="55.77" arrivalSpeed="13.99" duration="178.00" routeLength="1626.83" waitingTime="47.00" waitingCount="1" stopTime="0.00" timeLoss="62.70" rerouteNo="0" devices="tripinfo_veh12" vType="passenger" speedFactor="1.04" vaporized=""/>
    <tripinfo id="veh34" depart="25.00" departLane="E42_1" departPos="68.07" departSpeed="0.00" departDelay="0.52" arrival="188.00" arrivalLane="-1136284448_1" arrivalPos="34.50" arrivalSpeed="8.16" duration="163.00" routeLength="1759.97" waitingTime="1.00" waitingCount="1" stopTime="0.00" timeLoss="38.68" rerouteNo="0" devices="tripinfo_veh34" vType="passenger" speedFactor="1.07" vaporized=""/>
    <tripinfo id="veh89" depart="65.00" departLane="-671642321_1" departPos="28.95" departSpeed="0.00" departDelay="0.92" arrival="188.00" arrivalLane="-250295379_1" arrivalPos="126.33" arrivalSpeed="14.05" duration="123.00" routeLength="985.59" waitingTime="29.00" waitingCount="1" stopTime="0.00" timeLoss="49.87" rerouteNo="0" devices="tripinfo_veh89" vType="passenger" speedFactor="1.10" vaporized=""/>
    <tripinfo id="veh61" depart="44.00" departLane="48797765#1_1" departPos="26.63" departSpeed="0.00" departDelay="0.08" arrival="189.00" arrivalLane="48736648#1_1" arrivalPos="233.53" arrivalSpeed="5.04" duration="145.00" routeLength="1070.88" waitingTime="0.00" waitingCount="0" stopTime="0.00" timeLoss="26.70" rerouteNo="0" devices="tripinfo_veh61" vType="passenger" speedFactor="0.92" vaporized=""/>
    <tripinfo id="veh90" depart="65.00" departLane="-647610982#0_1" departPos="34.98" departSpeed="0.00" departDelay="0.20" arrival="189.00" arrivalLane="-48736613#3_1" arrivalPos="41.47" arrivalSpeed="12.32" duration="124.00" routeLength="1093.72" waitingTime="18.00" waitingCount="2" stopTime="0.00" timeLoss="40.57" rerouteNo="0" devices="tripinfo_veh90" vType="passenger" speedFactor="0.97" vaporized=""/>
    <tripinfo id="veh52" depart="38.00" departLane="43546789#3_1" departPos="63.71" departSpeed="0.00" departDelay="0.56" arrival="192.00" arrivalLane="-530103975#0_1" arrivalPos="70.63" arrivalSpeed="13.36" duration="154.00" routeLength="1300.82" waitingTime="33.00" waitingCount="1" stopTime="0.00" timeLoss="56.04" rerouteNo="0" devices="tripinfo_veh52" vType="delivery" speedFactor="0.99" vaporized=""/>
    <personinfo id="ped30" depart="150.00" type="DEFAULT_PEDTYPE" speedFactor="0.94" duration="46.00" waitingTime="0.00" timeLoss="5.57" traveltime="46.00">
        <walk depart="150.00" departPos="0.00" arrival="196.00" arrivalPos="1.74" duration="46.00" routeLength="52.51" timeLoss="5.57" maxSpeed="1.30"/>
    </personinfo>
    <tripinfo id="veh93" depart="67.00" departLane="E26_1" departPos="48.65" departSpeed="0.00" departDelay="0.04" arrival="197.00" arrivalLane="-945794110_1" arrivalPos="52.39" arrivalSpeed="8.19" duration="130.00" routeLength="1415.29" waitingTime="1.00" waitingCount="1" stopTime="0.00" timeLoss="22.30" rerouteNo="0" devices="tripinfo_veh93" vType="passenger" speedFactor="0.99" vaporized=""/>
    <tripinfo id="veh20" depart="15.00" departLane="40334245#0_1" departPos="71.41" departSpeed="0.00" departDelay="0.60" arrival="200.00" arrivalLane="647621858_0" arrivalPos="84.34" arrivalSpeed="4.72" duration="185.00" routeLength="1384.27" waitingTime="24.00" waitingCount="2" stopTime="0.00" timeLoss="52.61" rerouteNo="0" devices="tripinfo_veh20" vType="passenger" speedFactor="0.87" vaporized=""/>
    <tripinfo id="veh97" depart="70.00" departLane="48797766#0_1" departPos="17.55" departSpeed="0.00" departDelay="0.16" arrival="201.00" arrivalLane="-984521612#0_0" arrivalPos="12.48" arrivalSpeed="5.25" duration="131.00" routeLength="973.48" waitingTime="18.00" waitingCount="3" stopTime="0.00" timeLoss="53.28" rerouteNo="0" devices="tripinfo_veh97" vType="passenger" speedFactor="1.02" vaporized=""/>
    <tripinfo id="veh164" depart="119.00" departLane="383582519_0" departPos="51.93" departSpeed="0.00" departDelay="0.92" arrival="202.00" arrivalLane="33910068#0_1" arrivalPos="177.10" arrivalSpeed="11.69" duration="83.00" routeLength="636.88" waitingTime="11.00" waitingCount="1" stopTime="0.00" timeLoss="24.30" rerouteNo="0" devices="tripinfo_veh164" vType="passenger" speedFactor="0.87" vaporized=""/>
    <personinfo id="ped14" depart="70.00" type="DEFAULT_PEDTYPE" speedFactor="1.03" duration="133.00" waitingTime="0.00" timeLoss="14.08" traveltime="133.00">
        <walk depart="70.00" departPos="0.00" arrival="203.00" arrivalPos="47.62" duration="133.00" routeLength="170.92" timeLoss="14.08" maxSpeed="1.44"/>
    </personinfo>
    <tripinfo id="veh31" depart="23.00" departLane="-40330575#1_1" departPos="0.09" departSpeed="0.00" departDelay="0.68" arrival="204.00" arrivalLane="492965073#6_1" arrivalPos="1.90" arrivalSpeed="14.62" duration="181.00" routeLength="1452.72" waitingTime="48.00" waitingCount="2" stopTime="0.00" timeLoss="81.00" rerouteNo="0" devices="tripinfo_veh31" vType="passenger" speedFactor="1.10" vaporized=""/>
    <tripinfo id="veh118" depart="85.00" departLane="-48778492_1" departPos="21.56" departSpeed="0.00" departDelay="0.04" arrival="205.00" arrivalLane="40236228#1_1" arrivalPos="51.45" arrivalSpeed="14.39" duration="120.00" routeLength="1222.40" waitingTime="2.00" waitingCount="1" stopTime="0.00" timeLoss="29.21" rerouteNo="0" devices="tripinfo_veh118" vType="motorcycle" speedFactor="1.04" vaporized=""/>
    <tripinfo id="veh107" depart="78.00" departLane="383582513_0" departPos="10.69" departSpeed="0.00" departDelay="0.96" arrival="206.00" arrivalLane="48778494#0_1" arrivalPos="50.01" arrivalSpeed="13.69" duration="128.00" routeLength="873.32" waitingTime="39.00" waitingCount="1" stopTime="0.00" timeLoss="59.56" rerouteNo="0" devices="tripinfo_veh107" vType="motorcycle" speedFactor="1.04" vaporized=""/>
    <tripinfo id="veh55" depart="40.00" departLane="92198452#2_1" departPos="16.41" departSpeed="0.00" departDelay="0.40" arrival="209.00" arrivalLane="-67712683_1" arrivalPos="77.22" arrivalSpeed="11.94" duration="169.00" routeLength="1545.17" waitingTime="14.00" waitingCount="1" stopTime="0.00" timeLoss="46.95" rerouteNo="0" devices="tripinfo_veh55" vType="passenger" speedFactor="0.95" vaporized=""/>
    <tripinfo id="veh28" depart="21.00" departLane="43544001#15_1" departPos="7.04" departSpeed="0.00" departDelay="0.84" arrival="211.00" arrivalLane="-43546506#0_1" arrivalPos="307.08" arrivalSpeed="11.21" duration="190.00" routeLength="1837.06" waitingTime="37.00" waitingCount="1" stopTime="0.00" timeLoss="58.56" rerouteNo="0" devices="tripinfo_veh28" vType="motorcycle" speedFactor="1.02" vaporized=""/>
    <tripinfo id="veh79" depart="57.00" departLane="48736601_1" departPos="123.62" departSpeed="0.00" departDelay="0.12" arrival="211.00" arrivalLane="-258551297#1_0" arrivalPos="131.29" arrivalSpeed="5.14" duration="154.00" routeLength="1155.23" waitingTime="32.00" waitingCount="1" stopTime="0.00" timeLoss="51.47" rerouteNo="0" devices="tripinfo_veh79" vType="delivery" speedFactor="0.98" vaporized=""/>
    <tripinfo id="veh23" depart="17.00" departLane="945793485#1_1" departPos="3.12" departSpeed="0.00" departDelay="0.44" arrival="212.00" arrivalLane="-353939570#8_1" arrivalPos="84.62" arrivalSpeed="11.99" duration="195.00" routeLength="1736.50" waitingTime="5.00" waitingCount="1" stopTime="0.00" timeLoss="39.87" rerouteNo="0" devices="tripinfo_veh23" vType="passenger" speedFactor="0.89" vaporized=""/>
    <tripinfo id="veh32" depart="24.00" departLane="43546648#2_1" departPos="39.36" departSpeed="0.00" departDelay="0.96" arrival="214.00" arrivalLane="-945793485#0_1" arrivalPos="25.01" arrivalSpeed="4.25" duration="190.00" routeLength="812.28" waitingTime="0.00" waitingCount="0" stopTime="0.00" timeLoss="14.38" rerouteNo="0" devices="tripinfo_veh32" vType="bicycle" speedFactor="0.83" vaporized=""/>
    <tripinfo id="veh115" depart="83.00" departLane="-43573547#6_1" departPos="23.98" departSpeed="0.00" departDelay="0.20" arrival="214.00" arrivalLane="-289113778#0_1" arrivalPos="105.65" arrivalSpeed="15.97" duration="131.00" routeLength="1613.14" waitingTime="0.00" waitingCount="0" stopTime="0.00" timeLoss="31.37" rerouteNo="0" devices="tripinfo_veh115" vType="passenger" speedFactor="1.21" vaporized=""/>
    <tripinfo id="veh4" depart="3.00" departLane="43546570#0_1" departPos="1.89" departSpeed="0.00" departDelay="0.12" arrival="215.00" arrivalLane="-383582512#0_0" arrivalPos="35.67" arrivalSpeed="4.75" duration="212.00" routeLength="2571.05" waitingTime="0.00" waitingCount="0" stopTime="0.00" timeLoss="28.27" rerouteNo="0" devices="tripinfo_veh4" vType="passenger" speedFactor="1.08" vaporized=""/>
    <tripinfo id="veh127" depart="92.00" departLane="-40334244#1_1" departPos="46.37" departSpeed="0.00" departDelay="0.56" arrival="217.00" arrivalLane="-48778485#0_1" arrivalPos="25.13" arrivalSpeed="12.59" duration="125.00" routeLength="1330.27" waitingTime="0.00" waitingCount="0" stopTime="0.00" timeLoss="22.72" rerouteNo="0" devices="tripinfo_veh127" vType="delivery" speedFactor="1.00" vaporized=""/>
    <tripinfo id="veh110" depart="80.00" departLane="264868325_1" departPos="89.55" departSpeed="0.00" departDelay="0.80" arrival="221.00" arrivalLane="-354252035_1" arrivalPos="106.56" arrivalSpeed="12.90" duration="141.00" routeLength="1628.74" waitingTime="0.00" waitingCount="0" stopTime="0.00" timeLoss="20.60" rerouteNo="0" devices="tripinfo_veh110" vType="passenger" speedFactor="1.02" vaporized=""/>
    <tripinfo id="veh125" depart="90.00" departLane="-250295384_1" departPos="13.12" departSpeed="0.00" departDelay="0.00" arrival="221.00" arrivalLane="354252035_1" arrivalPos="106.56" arrivalSpeed="12.01" duration="131.00" routeLength="1446.05" waitingTime="0.00" waitingCount="0" stopTime="0.00" timeLoss="23.54" rerouteNo="0" devices="tripinfo_veh125" vType="motorcycle" speedFactor="1.01" vaporized=""/>
    <tripinfo id="veh10" depart="8.00" departLane="40299264#0_1" departPos="49.21" departSpeed="0.00" departDelay="0.80" arrival="228.00" arrivalLane="-43573547#0_1" arrivalPos="148.63" arrivalSpeed="11.40" duration="220.00" routeLength="2189.77" waitingTime="5.00" waitingCount="2" stopTime="0.00" timeLoss="39.89" rerouteNo="0" devices="tripinfo_veh10" vType="passenger" speedFactor="0.90" vaporized=""/>
    <tripinfo id="veh78" depart="57.00" departLane="383582499#4_1" departPos="40.85" departSpeed="0.00" departDelay="0.84" arrival="229.00" arrivalLane="1136289990_1" arrivalPos="14.40" arrivalSpeed="7.66" duration="172.00" routeLength="2037.43" waitingTime="0.00" waitingCount="0" stopTime="0.00" timeLoss="18.38" rerouteNo="0" devices="tripinfo_veh78" vType="emergency" speedFactor="1.00" vaporized=""/>
    <tripinfo id="veh74" depart="54.00" departLane="-48778510#1_1" departPos="38.46" departSpeed="0.00" departDelay="0.72" arrival="230.00" arrivalLane="859735387#1_0" arrivalPos="30.39" arrivalSpeed="4.56" duration="176.00" routeLength="1500.04" waitingTime="9.00" waitingCount="1" stopTime="0.00" timeLoss="32.03" rerouteNo="0" devices="tripinfo_veh74" vType="passenger" speedFactor="0.86" vaporized=""/>
    <tripinfo id="veh104" depart="75.00" departLane="-43546688#1_1" departPos="11.29" departSpeed="0.00" departDelay="0.12" arrival="230.00" arrivalLane="43546379_1" arrivalPos="170.39" arrivalSpeed="13.79" duration="155.00" routeLength="1431.10" waitingTime="18.00" waitingCount="1" stopTime="0.00" timeLoss="48.88" rerouteNo="0" devices="tripinfo_veh104" vType="passenger" speedFactor="1.03" vaporized=""/>
    <tripinfo id="veh19" depart="14.00" departLane="48797766#2_1" departPos="40.80" departSpeed="0.00" departDelay="0.32" arrival="231.00" arrivalLane="E14_2" arrivalPos="237.28" arrivalSpeed="13.60" duration="217.00" routeLength="2396.02" waitingTime="5.00" waitingCount="2" stopTime="0.00" timeLoss="43.04" rerouteNo="0" devices="tripinfo_veh19" vType="passenger" speedFactor="1.01" vaporized=""/>
    <tripinfo id="veh239" depart="173.00" departLane="33909936#3_1" departPos="8.03" departSpeed="0.00" departDelay="0.92" arrival="231.00" arrivalLane="48778500#0_1" arrivalPos="18.03" arrivalSpeed="10.60" duration="58.00" routeLength="622.96" waitingTime="0.00" waitingCount="0" stopTime="0.00" timeLoss="11.48" rerouteNo="0" devices="tripinfo_veh239" vType="passenger" speedFactor="1.02" vaporized=""/>
    <tripinfo id="veh58" depart="42.00" departLane="-48736632#0_1" departPos="47.14" departSpeed="0.00" departDelay="0.24" arrival="234.00" arrivalLane="492965073#7_2" arrivalPos="34.78" arrivalSpeed="13.64" duration="192.00" routeLength="1338.57" waitingTime="59.00" waitingCount="4" stopTime="0.00" timeLoss="98.72" rerouteNo="0" devices="tripinfo_veh58" vType="passenger" speedFactor="1.06" vaporized=""/>
    <tripinfo id="veh129" depart="93.00" departLane="-48778505#0_1" departPos="195.99" departSpeed="0.00" departDelay="0.12" arrival="234.00" arrivalLane="-40236203#3_1" arrivalPos="78.82" arrivalSpeed="10.38" duration="141.00" routeLength="1154.72" waitingTime="11.00" waitingCount="3" stopTime="0.00" timeLoss="33.10" rerouteNo="0" devices="tripinfo_veh129" vType="passenger" speedFactor="0.80" vaporized=""/>
    <tripinfo id="veh99" depart="72.00" departLane="40266621_1" departPos="3.14" departSpeed="0.00" departDelay="0.72" arrival="235.00" arrivalLane="250295384_1" arrivalPos="124.18" arrivalSpeed="13.84" duration="163.00" routeLength="1552.05" waitingTime="17.00" waitingCount="1" stopTime="0.00" timeLoss="50.22" rerouteNo="0" devices="tripinfo_veh99" vType="passenger" speedFactor="1.03" vaporized=""/>
    <tripinfo id="veh35" depart="26.00" departLane="996489799#2_0" departPos="52.50" departSpeed="0.00" departDelay="0.80" arrival="239.00" arrivalLane="-647640187_0" arrivalPos="72.26" arrivalSpeed="5.58" duration="213.00" routeLength="1851.61" waitingTime="27.00" waitingCount="1" stopTime="0.00" timeLoss="67.56" rerouteNo="0" devices="tripinfo_veh35" vType="passenger" speedFactor="1.04" vaporized=""/>
    <tripinfo id="veh44" depart="32.00" departLane="-40304754#1_1" departPos="297.56" departSpeed="0.00" departDelay="0.32" arrival="241.00" arrivalLane="-40330557#0_1" arrivalPos="52.98" arrivalSpeed="11.24" duration="209.00" routeLength="2253.64" waitingTime="0.00" waitingCount="0" stopTime="0.00" timeLoss="40.06" rerouteNo="0" devices="tripinfo_veh44" vType="motorcycle" speedFactor="1.00" vaporized=""/>
    <tripinfo id="veh142" depart="103.00" departLane="859728206_0" departPos="17.49" departSpeed="0.00" departDelay="0.76" arrival="241.00" arrivalLane="-48736646#0_1" arrivalPos="88.89" arrivalSpeed="12.88" duration="138.00" routeLength="1259.80" waitingTime="0.00" waitingCount="0" stopTime="0.00" timeLoss="27.31" rerouteNo="0" devices="tripinfo_veh142" vType="motorcycle" speedFactor="0.98" vaporized=""/>
    <tripinfo id="veh156" depart="113.00" departLane="43544184#2_1" departPos="20.29" departSpeed="0.00" departDelay="0.68" arrival="241.00" arrivalLane="647226815#1_1" arrivalPos="42.65" arrivalSpeed="12.34" duration="128.00" routeLength="1259.97" waitingTime="0.00" waitingCount="0" stopTime="0.00" timeLoss="22.82" rerouteNo="0" devices="tripinfo_veh156" vType="passenger" speedFactor="0.90" vaporized=""/>
    <tripinfo id="veh48" depart="35.00" departLane="945793486#0_0" departPos="0.54" departSpeed="0.00" departDelay="0.44" arrival="242.00" arrivalLane="-1136279385_1" arrivalPos="125.15" arrivalSpeed="7.59" duration="207.00" routeLength="1603.44" waitingTime="31.00" waitingCount="2" stopTime="0.00" timeLoss="77.42" rerouteNo="0" devices="tripinfo_veh48" vType="passenger" speedFactor="1.02" vaporized=""/>
    <tripinfo id="veh22" depart="16.00" departLane="-671642313_1" departPos="15.33" departSpeed="0.00" departDelay="0.16" arrival="248.00" arrivalLane="48778508#1_1" arrivalPos="98.38" arrivalSpeed="14.63" duration="232.00" routeLength="2853.30" waitingTime="2.00" waitingCount="1" stopTime="0.00" timeLoss="43.23" rerouteNo="0" devices="tripinfo_veh22" vType="passenger" speedFactor="1.13" vaporized=""/>
    <tripinfo id="veh27" depart="20.00" departLane="-1250915721#0_1" departPos="3.09" departSpeed="0.00" departDelay="0.56" arrival="248.00" arrivalLane="48736647#1_1" arrivalPos="90.38" arrivalSpeed="12.16" duration="228.00" routeLength="1855.77" waitingTime="36.00" waitingCount="2" stopTime="0.00" timeLoss="73.50" rerouteNo="0" devices="tripinfo_veh27" vType="passenger" speedFactor="0.97" vaporized=""/>
    <personinfo id="ped43" depart="215.00" type="DEFAULT_PEDTYPE" speedFactor="1.03" duration="35.00" waitingTime="0.00" timeLoss="3.73" traveltime="35.00">
        <walk depart="215.00" departPos="0.00" arrival="250.00" arrivalPos="28.59" duration="35.00" routeLength="44.61" timeLoss="3.73" maxSpeed="1.43"/>
    </personinfo>
    <tripinfo id="veh75" depart="54.00" departLane="-578560104#5_1" departPos="40.29" departSpeed="0.00" departDelay="0.00" arrival="251.00" arrivalLane="-222605084#6_0" arrivalPos="0.20" arrivalSpeed="4.20" duration="197.00" routeLength="1221.31" waitingTime="39.00" waitingCount="1" stopTime="0.00" timeLoss="66.06" rerouteNo="0" devices="tripinfo_veh75" vType="passenger" speedFactor="0.91" vaporized=""/>
    <tripinfo id="veh116" depart="84.00" departLane="258551297#1_0" departPos="109.42" departSpeed="0.00" departDelay="0.48" arrival="251.00" arrivalLane="-48778473#0_1" arrivalPos="21.31" arrivalSpeed="11.75" duration="167.00" routeLength="1580.38" waitingTime="15.00" waitingCount="1" stopTime="0.00" timeLoss="33.39" rerouteNo="0" devices="tripinfo_veh116" vType="passenger" speedFactor="0.89" vaporized=""/>
    <personinfo id="ped20" depart="100.00" type="DEFAULT_PEDTYPE" speedFactor="0.95" duration="152.00" waitingTime="0.00" timeLoss="15.04" traveltime="152.00">
        <walk depart="100.00" departPos="0.00" arrival="252.00" arrivalPos="20.89" duration="152.00" routeLength="180.56" timeLoss="15.04" maxSpeed="1.32"/>
    </personinfo>