<?xml version="1.0" encoding="UTF-8"?>

<!-- generated on 2025-06-15 21:29:57 by Eclipse SUMO sumo Version 1.22.0
<sumoConfiguration xmlns:xsi="http://www.w3.org/2001/XMLSchema-instance" xsi:noNamespaceSchemaLocation="http://sumo.dlr.de/xsd/sumoConfiguration.xsd">

    <input>
        <net-file value="E:/licenta/oras-mediu/2025-06-05-11-45-23\osm.net.xml"/>
        <route-files value="E:/licenta/oras-mediu/2025-06-05-11-45-23\full.rou.xml,E:/licenta/oras-mediu/2025-06-05-11-45-23\ ped.rou.xml,E:/licenta/oras-mediu/2025-06-05-11-45-23\ truck.rou.xml"/>
        <additional-files value="E:/licenta/oras-mediu/2025-06-05-11-45-23\osm.poly.xml,E:/licenta/oras-mediu/2025-06-05-11-45-23\ vtypes.xml"/>
    </input>

    <output>
        <summary-output value="E:/licenta/oras-mediu/2025-06-05-11-45-23\summary.xml"/>
        <tripinfo-output value="evaluation_run_outputs\baseline_outputs\tripinfo_baseline_ep2.xml"/>
    </output>

    <processing>
        <ignore-route-errors value="true"/>
        <tls.actuated.jam-threshold value="30"/>
    </processing>

    <routing>
        <device.rerouting.adaptation-steps value="18"/>
        <device.rerouting.adaptation-interval value="10"/>
    </routing>

    <report>
        <verbose value="true"/>
        <duration-log.statistics value="true"/>
        <no-step-log value="true"/>
    </report>

    <gui_only>
        <gui-settings-file value="E:/licenta/oras-mediu/2025-06-05-11-45-23\osm.view.xml"/>
    </gui_only>

</sumoConfiguration>
-->

<tripinfos xmlns:xsi="http://www.w3.org/2001/XMLSchema-instance" xsi:noNamespaceSchemaLocation="http://sumo.dlr.de/xsd/tripinfo_file.xsd">
    <personinfo id="ped0" depart="0.00" type="DEFAULT_PEDTYPE" speedFactor="1.03" duration="37.00" waitingTime="0.00" timeLoss="3.92" traveltime="37.00">
        <walk depart="0.00" departPos="0.00" arrival="37.00" arrivalPos="21.25" duration="37.00" routeLength="47.34" timeLoss="3.92" maxSpeed="1.43"/>
    </personinfo>
    <tripinfo id="veh20" depart="13.00" departLane="304695350#2_1" departPos="2.63" departSpeed="0.00" departDelay="0.00" arrival="72.00" arrivalLane="48736637_1" arrivalPos="17.08" arrivalSpeed="8.79" duration="59.00" routeLength="595.54" waitingTime="0.00" waitingCount="0" stopTime="0.00" timeLoss="13.38" rerouteNo="0" devices="tripinfo_veh20" vType="passenger" speedFactor="1.03" vaporized=""/>
    <tripinfo id="veh39" depart="26.00" departLane="383582512#0_0" departPos="25.31" departSpeed="0.00" departDelay="0.65" arrival="73.00" arrivalLane="-43546935#1_1" arrivalPos="51.35" arrivalSpeed="11.21" duration="47.00" routeLength="371.15" waitingTime="0.00" waitingCount="0" stopTime="0.00" timeLoss="7.98" rerouteNo="0" devices="tripinfo_veh39" vType="passenger" speedFactor="0.88" vaporized=""/>
    <tripinfo id="veh16" depart="11.00" departLane="-1136283379#1_1" departPos="4.93" departSpeed="0.00" departDelay="0.60" arrival="88.00" arrivalLane="40265775#0_1" arrivalPos="76.56" arrivalSpeed="11.14" duration="77.00" routeLength="722.95" waitingTime="0.00" waitingCount="0" stopTime="0.00" timeLoss="12.59" rerouteNo="0" devices="tripinfo_veh16" vType="passenger" speedFactor="0.89" vaporized=""/>
    <tripinfo id="veh17" depart="12.00" departLane="-40236144#2_1" departPos="17.11" departSpeed="0.00" departDelay="0.95" arrival="101.00" arrivalLane="-40269009#0_1" arrivalPos="20.68" arrivalSpeed="11.21" duration="89.00" routeLength="823.00" waitingTime="0.00" waitingCount="0" stopTime="0.00" timeLoss="20.05" rerouteNo="0" devices="tripinfo_veh17" vType="passenger" speedFactor="1.01" vaporized=""/>
    <tripinfo id="veh51" depart="34.00" departLane="-43573769#1_1" departPos="31.85" departSpeed="0.00" departDelay="0.85" arrival="103.00" arrivalLane="-33909936#2_1" arrivalPos="60.97" arrivalSpeed="12.97" duration="69.00" routeLength="724.59" waitingTime="0.00" waitingCount="0" stopTime="0.00" timeLoss="13.25" rerouteNo="0" devices="tripinfo_veh51" vType="delivery" speedFactor="0.99" vaporized=""/>
    <tripinfo id="veh21" depart="14.00" departLane="43547579#0_1" departPos="58.71" departSpeed="0.00" departDelay="0.35" arrival="105.00" arrivalLane="1136301815#1_1" arrivalPos="29.62" arrivalSpeed="12.57" duration="91.00" routeLength="865.04" waitingTime="5.00" waitingCount="1" stopTime="0.00" timeLoss="31.05" rerouteNo="0" devices="tripinfo_veh21" vType="passenger" speedFactor="1.13" vaporized=""/>
    <tripinfo id="veh18" depart="12.00" departLane="43573478_1" departPos="23.34" departSpeed="0.00" departDelay="0.30" arrival="109.00" arrivalLane="40236232#1_1" arrivalPos="114.84" arrivalSpeed="11.25" duration="97.00" routeLength="943.64" waitingTime="0.00" waitingCount="0" stopTime="0.00" timeLoss="14.71" rerouteNo="0" devices="tripinfo_veh18" vType="passenger" speedFactor="0.87" vaporized=""/>
    <tripinfo id="veh58" depart="38.00" departLane="-258551321_1" departPos="25.50" departSpeed="0.00" departDelay="0.30" arrival="111.00" arrivalLane="-250295380#1_1" arrivalPos="92.88" arrivalSpeed="14.15" duration="73.00" routeLength="817.43" waitingTime="0.00" waitingCount="0" stopTime="0.00" timeLoss="14.36" rerouteNo="0" devices="tripinfo_veh58" vType="passenger" speedFactor="1.06" vaporized=""/>
    <tripinfo id="veh57" depart="38.00" departLane="-48797769_1" departPos="9.27" departSpeed="0.00" departDelay="0.95" arrival="117.00" arrivalLane="-48778457#1_1" arrivalPos="25.26" arrivalSpeed="13.15" duration="79.00" routeLength="590.57" waitingTime="5.00" waitingCount="1" stopTime="0.00" timeLoss="30.34" rerouteNo="0" devices="tripinfo_veh57" vType="delivery" speedFactor="0.96" vaporized=""/>
    <tripinfo id="veh24" depart="16.00" departLane="-984508805_0" departPos="17.15" departSpeed="0.00" departDelay="0.40" arrival="119.00" arrivalLane="48736648#1_1" arrivalPos="233.53" arrivalSpeed="5.68" duration="103.00" routeLength="819.02" waitingTime="3.00" waitingCount="1" stopTime="0.00" timeLoss="22.86" rerouteNo="0" devices="tripinfo_veh24" vType="passenger" speedFactor="1.12" vaporized=""/>
    <tripinfo id="veh23" depart="15.00" departLane="578560104#4_1" departPos="7.80" departSpeed="0.00" departDelay="0.05" arrival="120.00" arrivalLane="-984521613_0" arrivalPos="61.82" arrivalSpeed="5.50" duration="105.00" routeLength="1129.77" waitingTime="0.00" waitingCount="0" stopTime="0.00" timeLoss="24.49" rerouteNo="0" devices="tripinfo_veh23" vType="passenger" speedFactor="1.15" vaporized=""/>
    <tripinfo id="veh120" depart="79.00" departLane="-48778524#1_1" departPos="8.61" departSpeed="0.00" departDelay="1.00" arrival="122.00" arrivalLane="43546935#3_1" arrivalPos="13.61" arrivalSpeed="12.76" duration="43.00" routeLength="441.51" waitingTime="0.00" waitingCount="0" stopTime="0.00" timeLoss="10.46" rerouteNo="0" devices="tripinfo_veh120" vType="motorcycle" speedFactor="1.04" vaporized=""/>
    <tripinfo id="veh65" depart="43.00" departLane="43544202#1_1" departPos="85.24" departSpeed="0.00" departDelay="0.75" arrival="124.00" arrivalLane="1136289991_1" arrivalPos="31.14" arrivalSpeed="8.65" duration="81.00" routeLength="807.14" waitingTime="0.00" waitingCount="0" stopTime="0.00" timeLoss="20.42" rerouteNo="0" devices="tripinfo_veh65" vType="passenger" speedFactor="1.08" vaporized=""/>
    <tripinfo id="veh1" depart="1.00" departLane="492965073#3_2" departPos="9.19" departSpeed="0.00" departDelay="0.35" arrival="130.00" arrivalLane="-48736632#1_1" arrivalPos="49.82" arrivalSpeed="14.61" duration="129.00" routeLength="1485.73" waitingTime="0.00" waitingCount="0" stopTime="0.00" timeLoss="25.87" rerouteNo="0" devices="tripinfo_veh1" vType="passenger" speedFactor="1.08" vaporized=""/>
    <tripinfo id="veh36" depart="24.00" departLane="-984508802_0" departPos="35.81" departSpeed="0.00" departDelay="0.60" arrival="138.00" arrivalLane="-671642327_0" arrivalPos="205.40" arrivalSpeed="4.98" duration="114.00" routeLength="1047.21" waitingTime="0.00" waitingCount="0" stopTime="0.00" timeLoss="16.58" rerouteNo="0" devices="tripinfo_veh36" vType="passenger" speedFactor="1.09" vaporized=""/>
    <tripinfo id="veh106" depart="69.00" departLane="-40330575#1_1" departPos="2.88" departSpeed="0.00" departDelay="0.10" arrival="140.00" arrivalLane="-48778502#0_1" arrivalPos="26.17" arrivalSpeed="13.12" duration="71.00" routeLength="812.98" waitingTime="0.00" waitingCount="0" stopTime="0.00" timeLoss="13.01" rerouteNo="0" devices="tripinfo_veh106" vType="passenger" speedFactor="1.03" vaporized=""/>
    <tripinfo id="veh33" depart="22.00" departLane="-647226815#1_1" departPos="15.57" departSpeed="0.00" departDelay="0.55" arrival="146.00" arrivalLane="671642324_1" arrivalPos="52.30" arrivalSpeed="13.94" duration="124.00" routeLength="1451.02" waitingTime="0.00" waitingCount="0" stopTime="0.00" timeLoss="22.83" rerouteNo="0" devices="tripinfo_veh33" vType="passenger" speedFactor="1.07" vaporized=""/>
    <tripinfo id="veh119" depart="78.00" departLane="859728205_0" departPos="31.79" departSpeed="0.00" departDelay="0.65" arrival="154.00" arrivalLane="-383582503_0" arrivalPos="105.76" arrivalSpeed="4.24" duration="76.00" routeLength="551.27" waitingTime="0.00" waitingCount="0" stopTime="0.00" timeLoss="14.06" rerouteNo="0" devices="tripinfo_veh119" vType="passenger" speedFactor="0.97" vaporized=""/>
    <tripinfo id="veh7" depart="5.00" departLane="43546092_1" departPos="104.34" departSpeed="0.00" departDelay="0.45" arrival="157.00" arrivalLane="-1205541342_1" arrivalPos="22.37" arrivalSpeed="5.47" duration="152.00" routeLength="1784.01" waitingTime="7.00" waitingCount="1" stopTime="0.00" timeLoss="28.53" rerouteNo="0" devices="tripinfo_veh7" vType="passenger" speedFactor="1.12" vaporized=""/>
    <tripinfo id="veh70" depart="46.00" departLane="48778481#2_2" departPos="39.47" departSpeed="0.00" departDelay="0.50" arrival="159.00" arrivalLane="48778478#2_1" arrivalPos="30.02" arrivalSpeed="10.91" duration="113.00" routeLength="852.61" waitingTime="10.00" waitingCount="1" stopTime="0.00" timeLoss="33.61" rerouteNo="0" devices="tripinfo_veh70" vType="passenger" speedFactor="0.83" vaporized=""/>
    <tripinfo id="veh28" depart="19.00" departLane="-945794109_1" departPos="1.88" departSpeed="0.00" departDelay="0.80" arrival="170.00" arrivalLane="E40_0" arrivalPos="24.19" arrivalSpeed="11.01" duration="151.00" routeLength="1747.89" waitingTime="0.00" waitingCount="0" stopTime="0.00" timeLoss="13.73" rerouteNo="0" devices="tripinfo_veh28" vType="passenger" speedFactor="0.94" vaporized=""/>
    <tripinfo id="veh64" depart="42.00" departLane="1136284448_1" departPos="18.79" departSpeed="0.00" departDelay="0.40" arrival="170.00" arrivalLane="-43546648#2_1" arrivalPos="81.52" arrivalSpeed="13.38" duration="128.00" routeLength="1509.96" waitingTime="0.00" waitingCount="0" stopTime="0.00" timeLoss="16.85" rerouteNo="0" devices="tripinfo_veh64" vType="passenger" speedFactor="1.02" vaporized=""/>
    <tripinfo id="veh140" depart="91.00" departLane="383582519_0" departPos="83.02" departSpeed="0.00" departDelay="0.00" arrival="171.00" arrivalLane="48778464#0_1" arrivalPos="23.97" arrivalSpeed="13.91" duration="80.00" routeLength="939.19" waitingTime="0.00" waitingCount="0" stopTime="0.00" timeLoss="12.05" rerouteNo="0" devices="tripinfo_veh140" vType="motorcycle" speedFactor="1.02" vaporized=""/>
    <personinfo id="ped19" depart="95.00" type="DEFAULT_PEDTYPE" speedFactor="1.14" duration="78.00" waitingTime="0.00" timeLoss="7.32" traveltime="78.00">
        <walk depart="95.00" departPos="0.00" arrival="173.00" arrivalPos="8.73" duration="78.00" routeLength="111.83" timeLoss="7.32" maxSpeed="1.58"/>
    </personinfo>
    <tripinfo id="veh56" depart="37.00" departLane="43546793_1" departPos="22.94" departSpeed="0.00" departDelay="0.60" arrival="174.00" arrivalLane="43544202#0_1" arrivalPos="273.61" arrivalSpeed="13.63" duration="137.00" routeLength="1574.75" waitingTime="3.00" waitingCount="1" stopTime="0.00" timeLoss="23.60" rerouteNo="0" devices="tripinfo_veh56" vType="passenger" speedFactor="1.02" vaporized=""/>
    <tripinfo id="veh26" depart="17.00" departLane="48736650#2_1" departPos="2.46" departSpeed="0.00" departDelay="0.10" arrival="177.00" arrivalLane="995051712_1" arrivalPos="194.59" arrivalSpeed="13.32" duration="160.00" routeLength="1860.52" waitingTime="0.00" waitingCount="0" stopTime="0.00" timeLoss="18.04" rerouteNo="0" devices="tripinfo_veh26" vType="passenger" speedFactor="0.97" vaporized=""/>
    <tripinfo id="veh102" depart="67.00" departLane="1135856957_0" departPos="3.81" departSpeed="0.00" departDelay="0.70" arrival="180.00" arrivalLane="-48736620#5_1" arrivalPos="11.94" arrivalSpeed="13.56" duration="113.00" routeLength="900.89" waitingTime="22.00" waitingCount="1" stopTime="0.00" timeLoss="42.64" rerouteNo="0" devices="tripinfo_veh102" vType="passenger" speedFactor="1.00" vaporized=""/>
    <tripinfo id="veh0" depart="0.00" departLane="1135855912_1" departPos="83.73" departSpeed="0.00" departDelay="0.00" arrival="183.00" arrivalLane="1136283379#1_1" arrivalPos="30.99" arrivalSpeed="6.72" duration="183.00" routeLength="1284.78" waitingTime="57.00" waitingCount="2" stopTime="0.00" timeLoss="81.99" rerouteNo="0" devices="tripinfo_veh0" vType="motorcycle" speedFactor="0.98" vaporized=""/>
    <tripinfo id="veh4" depart="3.00" departLane="-354252043_1" departPos="14.80" departSpeed="0.00" departDelay="0.40" arrival="184.00" arrivalLane="43546460#4_1" arrivalPos="196.01" arrivalSpeed="12.92" duration="181.00" routeLength="2116.07" waitingTime="0.00" waitingCount="0" stopTime="0.00" timeLoss="25.68" rerouteNo="0" devices="tripinfo_veh4" vType="passenger" speedFactor="1.02" vaporized=""/>
    <tripinfo id="veh154" depart="101.00" departLane="996984133_1" departPos="19.59" departSpeed="0.00" departDelay="0.90" arrival="186.00" arrivalLane="40309190_1" arrivalPos="61.38" arrivalSpeed="13.74" duration="85.00" routeLength="744.73" waitingTime="5.00" waitingCount="1" stopTime="0.00" timeLoss="29.56" rerouteNo="0" devices="tripinfo_veh154" vType="passenger" speedFactor="1.07" vaporized=""/>
    <tripinfo id="veh68" depart="45.00" departLane="43544184#0_1" departPos="0.72" departSpeed="0.00" departDelay="0.80" arrival="195.00" arrivalLane="48778480#0_1" arrivalPos="309.52" arrivalSpeed="13.72" duration="150.00" routeLength="1829.67" waitingTime="0.00" waitingCount="0" stopTime="0.00" timeLoss="16.98" rerouteNo="0" devices="tripinfo_veh68" vType="passenger" speedFactor="1.01" vaporized=""/>
    <tripinfo id="veh59" depart="39.00" departLane="-250295383#3_1" departPos="6.54" departSpeed="0.00" departDelay="0.65" arrival="196.00" arrivalLane="-1136017144_0" arrivalPos="13.63" arrivalSpeed="5.34" duration="157.00" routeLength="1261.21" waitingTime="23.00" waitingCount="1" stopTime="0.00" timeLoss="48.30" rerouteNo="0" devices="tripinfo_veh59" vType="passenger" speedFactor="1.12" vaporized=""/>
    <tripinfo id="veh46" depart="30.00" departLane="-671642313_1" departPos="14.82" departSpeed="0.00" departDelay="0.10" arrival="198.00" arrivalLane="48797773_1" arrivalPos="23.80" arrivalSpeed="13.61" duration="168.00" routeLength="2051.22" waitingTime="0.00" waitingCount="0" stopTime="0.00" timeLoss="14.34" rerouteNo="0" devices="tripinfo_veh46" vType="delivery" speedFactor="0.98" vaporized=""/>
    <tripinfo id="veh146" depart="95.00" departLane="-859726676_1" departPos="7.02" departSpeed="0.00" departDelay="0.10" arrival="200.00" arrivalLane="-401741889#1_1" arrivalPos="76.47" arrivalSpeed="13.04" duration="105.00" routeLength="1283.75" waitingTime="0.00" waitingCount="0" stopTime="0.00" timeLoss="9.72" rerouteNo="0" devices="tripinfo_veh146" vType="passenger" speedFactor="1.03" vaporized=""/>
    <tripinfo id="veh179" depart="117.00" departLane="222608881#1_1" departPos="5.62" departSpeed="0.00" departDelay="0.65" arrival="200.00" arrivalLane="-43544184#0_1" arrivalPos="27.32" arrivalSpeed="13.78" duration="83.00" routeLength="902.06" waitingTime="0.00" waitingCount="0" stopTime="0.00" timeLoss="15.02" rerouteNo="0" devices="tripinfo_veh179" vType="motorcycle" speedFactor="1.01" vaporized=""/>
    <tripinfo id="veh98" depart="64.00" departLane="859728205_0" departPos="24.85" departSpeed="0.00" departDelay="0.30" arrival="202.00" arrivalLane="-40304754#2_1" arrivalPos="101.06" arrivalSpeed="14.06" duration="138.00" routeLength="1398.20" waitingTime="4.00" waitingCount="1" stopTime="0.00" timeLoss="30.81" rerouteNo="0" devices="tripinfo_veh98" vType="passenger" speedFactor="1.03" vaporized=""/>
    <tripinfo id="veh125" depart="82.00" departLane="-43546449#1_1" departPos="19.20" departSpeed="0.00" departDelay="0.75" arrival="202.00" arrivalLane="E6_1" arrivalPos="42.45" arrivalSpeed="12.31" duration="120.00" routeLength="1036.53" waitingTime="9.00" waitingCount="1" stopTime="0.00" timeLoss="40.04" rerouteNo="0" devices="tripinfo_veh125" vType="motorcycle" speedFactor="1.01" vaporized=""/>
    <tripinfo id="veh223" depart="145.00" departLane="48736650#0_1" departPos="82.95" departSpeed="0.00" departDelay="0.05" arrival="202.00" arrivalLane="E35_1" arrivalPos="178.51" arrivalSpeed="11.64" duration="57.00" routeLength="420.05" waitingTime="10.00" waitingCount="1" stopTime="0.00" timeLoss="21.90" rerouteNo="0" devices="tripinfo_veh223" vType="motorcycle" speedFactor="0.93" vaporized=""/>
    <tripinfo id="veh29" depart="19.00" departLane="48736656#3_1" departPos="60.03" departSpeed="0.00" departDelay="0.15" arrival="203.00" arrivalLane="353939570#8_1" arrivalPos="81.94" arrivalSpeed="14.18" duration="184.00" routeLength="1514.39" waitingTime="52.00" waitingCount="3" stopTime="0.00" timeLoss="83.35" rerouteNo="0" devices="tripinfo_veh29" vType="passenger" speedFactor="1.10" vaporized=""/>
    <tripinfo id="veh92" depart="60.00" departLane="43546460#9_1" departPos="43.74" departSpeed="0.00" departDelay="0.20" arrival="204.00" arrivalLane="43544138#6_1" arrivalPos="39.12" arrivalSpeed="12.43" duration="144.00" routeLength="1713.54" waitingTime="0.00" waitingCount="0" stopTime="0.00" timeLoss="14.53" rerouteNo="0" devices="tripinfo_veh92" vType="passenger" speedFactor="0.97" vaporized=""/>
    <tripinfo id="veh6" depart="4.00" departLane="-222605087#0_1" departPos="0.12" departSpeed="0.00" departDelay="0.10" arrival="206.00" arrivalLane="48736640#1_1" arrivalPos="66.91" arrivalSpeed="12.33" duration="202.00" routeLength="2194.16" waitingTime="6.00" waitingCount="1" stopTime="0.00" timeLoss="24.86" rerouteNo="0" devices="tripinfo_veh6" vType="passenger" speedFactor="0.92" vaporized=""/>
    <personinfo id="ped22" depart="110.00" type="DEFAULT_PEDTYPE" speedFactor="1.26" duration="99.00" waitingTime="0.00" timeLoss="21.44" traveltime="99.00">
        <walk depart="110.00" departPos="0.00" arrival="209.00" arrivalPos="11.23" duration="99.00" routeLength="135.65" timeLoss="21.44" maxSpeed="1.75"/>
    </personinfo>
    <personinfo id="ped21" depart="105.00" type="DEFAULT_PEDTYPE" speedFactor="1.12" duration="106.00" waitingTime="0.00" timeLoss="10.07" traveltime="106.00">
        <walk depart="105.00" departPos="0.00" arrival="211.00" arrivalPos="38.07" duration="106.00" routeLength="149.07" timeLoss="10.07" maxSpeed="1.55"/>
    </personinfo>
    <tripinfo id="veh42" depart="28.00" departLane="1205541344_0" departPos="48.78" departSpeed="0.00" departDelay="0.70" arrival="211.00" arrivalLane="-996984134_0" arrivalPos="80.94" arrivalSpeed="5.59" duration="183.00" routeLength="1860.70" waitingTime="14.00" waitingCount="1" stopTime="0.00" timeLoss="38.87" rerouteNo="0" devices="tripinfo_veh42" vType="passenger" speedFactor="1.05" vaporized=""/>
    <tripinfo id="veh110" depart="72.00" departLane="996984132_0" departPos="30.23" departSpeed="0.00" departDelay="0.50" arrival="213.00" arrivalLane="-40334244#2_1" arrivalPos="5.56" arrivalSpeed="8.38" duration="141.00" routeLength="1499.34" waitingTime="0.00" waitingCount="0" stopTime="0.00" timeLoss="22.95" rerouteNo="0" devices="tripinfo_veh110" vType="passenger" speedFactor="1.01" vaporized=""/>
    <tripinfo id="veh196" depart="128.00" departLane="-143207982#7_1" departPos="8.08" departSpeed="0.00" departDelay="0.60" arrival="214.00" arrivalLane="48736655_1" arrivalPos="17.43" arrivalSpeed="12.12" duration="86.00" routeLength="561.42" waitingTime="26.00" waitingCount="1" stopTime="0.00" timeLoss="43.28" rerouteNo="0" devices="tripinfo_veh196" vType="emergency" speedFactor="1.00" vaporized=""/>
    <tripinfo id="veh88" depart="58.00" departLane="48778508#5_1" departPos="24.93" departSpeed="0.00" departDelay="0.80" arrival="215.00" arrivalLane="-383582518#0_0" arrivalPos="49.42" arrivalSpeed="4.51" duration="157.00" routeLength="1131.65" waitingTime="29.00" waitingCount="1" stopTime="0.00" timeLoss="48.39" rerouteNo="0" devices="tripinfo_veh88" vType="passenger" speedFactor="0.87" vaporized=""/>
    <tripinfo id="veh168" depart="110.00" departLane="-40265775#1_1" departPos="40.71" departSpeed="0.00" departDelay="0.80" arrival="216.00" arrivalLane="-48797765#0_1" arrivalPos="17.81" arrivalSpeed="13.01" duration="106.00" routeLength="1138.73" waitingTime="0.00" waitingCount="0" stopTime="0.00" timeLoss="25.35" rerouteNo="0" devices="tripinfo_veh168" vType="passenger" speedFactor="1.07" vaporized=""/>
    <tripinfo id="veh170" depart="111.00" departLane="-258551279_0" departPos="33.24" departSpeed="0.00" departDelay="0.50" arrival="220.00" arrivalLane="-383582506_0" arrivalPos="44.83" arrivalSpeed="3.21" duration="109.00" routeLength="783.49" waitingTime="3.00" waitingCount="1" stopTime="0.00" timeLoss="27.42" rerouteNo="0" devices="tripinfo_veh170" vType="motorcycle" speedFactor="1.00" vaporized=""/>
    <tripinfo id="veh2" depart="2.00" departLane="859735387#0_0" departPos="36.89" departSpeed="0.00" departDelay="0.70" arrival="221.00" arrivalLane="40266907#0_1" arrivalPos="33.90" arrivalSpeed="14.62" duration="219.00" routeLength="2736.15" waitingTime="0.00" waitingCount="0" stopTime="0.00" timeLoss="22.39" rerouteNo="0" devices="tripinfo_veh2" vType="passenger" speedFactor="1.08" vaporized=""/>
    <tripinfo id="veh255" depart="166.00" departLane="-1136301812#0_1" departPos="21.72" departSpeed="0.00" departDelay="0.25" arrival="221.00" arrivalLane="43546648#6_1" arrivalPos="186.87" arrivalSpeed="13.69" duration="55.00" routeLength="542.55" waitingTime="0.00" waitingCount="0" stopTime="0.00" timeLoss="13.29" rerouteNo="0" devices="tripinfo_veh255" vType="passenger" speedFactor="1.02" vaporized=""/>
    <tripinfo id="veh27" depart="18.00" departLane="256555440#0_1" departPos="4.02" departSpeed="0.00" departDelay="0.45" arrival="222.00" arrivalLane="43544624#3_1" arrivalPos="179.18" arrivalSpeed="12.30" duration="204.00" routeLength="2373.56" waitingTime="0.00" waitingCount="0" stopTime="0.00" timeLoss="31.76" rerouteNo="0" devices="tripinfo_veh27" vType="motorcycle" speedFactor="1.02" vaporized=""/>
    <tripinfo id="veh126" depart="82.00" departLane="-43544179#9_1" departPos="204.87" departSpeed="0.00" departDelay="0.10" arrival="224.00" arrivalLane="859737784_1" arrivalPos="96.91" arrivalSpeed="11.41" duration="142.00" routeLength="1412.79" waitingTime="4.00" waitingCount="1" stopTime="0.00" timeLoss="24.79" rerouteNo="0" devices="tripinfo_veh126" vType="passenger" speedFactor="0.91" vaporized=""/>
    <tripinfo id="veh41" depart="27.00" departLane="353939570#5_2" departPos="70.88" departSpeed="0.00" departDelay="0.35" arrival="225.00" arrivalLane="-256555440#1_1" arrivalPos="58.59" arrivalSpeed="15.03" duration="198.00" routeLength="1600.35" waitingTime="58.00" waitingCount="3" stopTime="0.00" timeLoss="95.95" rerouteNo="0" devices="tripinfo_veh41" vType="passenger" speedFactor="1.17" vaporized=""/>
    <tripinfo id="veh49" depart="32.00" departLane="-48778485#1_1" departPos="21.68" departSpeed="0.00" departDelay="0.15" arrival="234.00" arrivalLane="-143207979#0_1" arrivalPos="24.79" arrivalSpeed="14.22" duration="202.00" routeLength="2026.17" waitingTime="28.00" waitingCount="1" stopTime="0.00" timeLoss="68.02" rerouteNo="0" devices="tripinfo_veh49" vType="passenger" speedFactor="1.12" vaporized=""/>
    <tripinfo id="veh107" depart="70.00" departLane="1135772296#1_0" departPos="27.21" departSpeed="0.00" departDelay="0.45" arrival="234.00" arrivalLane="984508805_0" arrivalPos="34.81" arrivalSpeed="3.47" duration="164.00" routeLength="1275.80" waitingTime="4.00" waitingCount="1" stopTime="0.00" timeLoss="40.50" rerouteNo="0" devices="tripinfo_veh107" vType="motorcycle" speedFactor="0.84" vaporized=""/>
    <tripinfo id="veh25" depart="17.00" departLane="48778498#1_1" departPos="15.19" departSpeed="0.00" departDelay="0.75" arrival="237.00" arrivalLane="48736624#2_1" arrivalPos="0.20" arrivalSpeed="12.79" duration="220.00" routeLength="2236.22" waitingTime="15.00" waitingCount="3" stopTime="0.00" timeLoss="53.69" rerouteNo="0" devices="tripinfo_veh25" vType="passenger" speedFactor="0.99" vaporized=""/>
    <tripinfo id="veh72" depart="47.00" departLane="-43573573#4_1" departPos="44.49" departSpeed="0.00" departDelay="0.20" arrival="237.00" arrivalLane="-40266910_1" arrivalPos="146.08" arrivalSpeed="13.94" duration="190.00" routeLength="2041.53" waitingTime="12.00" waitingCount="1" stopTime="0.00" timeLoss="46.66" rerouteNo="0" devices="tripinfo_veh72" vType="passenger" speedFactor="1.06" vaporized=""/>
    <tripinfo id="veh45" depart="30.00" departLane="40314583#5_1" departPos="6.03" departSpeed="0.00" departDelay="0.75" arrival="238.00" arrivalLane="48778478#1_1" arrivalPos="66.33" arrivalSpeed="9.76" duration="208.00" routeLength="1743.81" waitingTime="6.00" waitingCount="1" stopTime="0.00" timeLoss="60.38" rerouteNo="0" devices="tripinfo_veh45" vType="motorcycle" speedFactor="0.90" vaporized=""/>
    <tripinfo id="veh61" depart="40.00" departLane="48736612#7_1" departPos="12.94" departSpeed="0.00" departDelay="0.35" arrival="238.00" arrivalLane="43546343#2_1" arrivalPos="61.97" arrivalSpeed="11.68" duration="198.00" routeLength="2015.25" waitingTime="7.00" waitingCount="1" stopTime="0.00" timeLoss="36.61" rerouteNo="0" devices="tripinfo_veh61" vType="passenger" speedFactor="0.92" vaporized=""/>
    <tripinfo id="veh276" depart="180.00" departLane="289113778#0_1" departPos="19.85" departSpeed="0.00" departDelay="0.60" arrival="238.00" arrivalLane="647998062_1" arrivalPos="77.82" arrivalSpeed="13.97" duration="58.00" routeLength="680.04" waitingTime="0.00" waitingCount="0" stopTime="0.00" timeLoss="10.74" rerouteNo="0" devices="tripinfo_veh276" vType="delivery" speedFactor="1.08" vaporized=""/>
    <tripinfo id="veh94" depart="62.00" departLane="-40330557#2_1" departPos="98.04" departSpeed="0.00" departDelay="0.90" arrival="240.00" arrivalLane="-43546793_1" arrivalPos="192.09" arrivalSpeed="14.83" duration="178.00" routeLength="1686.91" waitingTime="26.00" waitingCount="3" stopTime="0.00" timeLoss="66.82" rerouteNo="0" devices="tripinfo_veh94" vType="passenger" speedFactor="1.13" vaporized=""/>
    <tripinfo id="veh103" depart="67.00" departLane="-647998060#1_1" departPos="42.11" departSpeed="0.00" departDelay="0.05" arrival="242.00" arrivalLane="-222605088_0" arrivalPos="342.18" arrivalSpeed="5.77" duration="175.00" routeLength="1320.06" waitingTime="21.00" waitingCount="1" stopTime="0.00" timeLoss="52.49" rerouteNo="0" devices="tripinfo_veh103" vType="passenger" speedFactor="1.12" vaporized=""/>
    <tripinfo id="veh109" depart="71.00" departLane="40236228#0_1" departPos="24.41" departSpeed="0.00" departDelay="0.15" arrival="243.00" arrivalLane="470210923#2_1" arrivalPos="56.87" arrivalSpeed="12.35" duration="172.00" routeLength="1176.19" waitingTime="69.00" waitingCount="1" stopTime="0.00" timeLoss="88.42" rerouteNo="0" devices="tripinfo_veh109" vType="motorcycle" speedFactor="1.04" vaporized=""/>
    <tripinfo id="veh82" depart="54.00" departLane="222609004#1_1" departPos="55.80" departSpeed="0.00" departDelay="0.70" arrival="245.00" arrivalLane="-48736614#0_1" arrivalPos="85.72" arrivalSpeed="11.30" duration="191.00" routeLength="1837.18" waitingTime="7.00" waitingCount="2" stopTime="0.00" timeLoss="39.45" rerouteNo="0" devices="tripinfo_veh82" vType="passenger" speedFactor="0.89" vaporized=""/>
    <tripinfo id="veh176" depart="115.00" departLane="383582497_0" departPos="4.11" departSpeed="0.00" departDelay="0.60" arrival="245.00" arrivalLane="48736637_1" arrivalPos="17.08" arrivalSpeed="15.06" duration="130.00" routeLength="1224.52" waitingTime="16.00" waitingCount="1" stopTime="0.00" timeLoss="37.94" rerouteNo="0" devices="tripinfo_veh176" vType="motorcycle" speedFactor="1.10" vaporized=""/>
    <tripinfo id="veh22" depart="15.00" departLane="43573478_1" departPos="129.08" departSpeed="0.00" departDelay="0.70" arrival="247.00" arrivalLane="-383582505_0" arrivalPos="120.02" arrivalSpeed="2.12" duration="232.00" routeLength="1866.22" waitingTime="0.00" waitingCount="0" stopTime="0.00" timeLoss="36.85" rerouteNo="0" devices="tripinfo_veh22" vType="passenger" speedFactor="0.89" vaporized=""/>
    <personinfo id="ped9" depart="45.00" type="DEFAULT_PEDTYPE" speedFactor="1.06" duration="204.00" waitingTime="0.00" timeLoss="21.53" traveltime="204.00">
        <walk depart="45.00" departPos="0.00" arrival="249.00" arrivalPos="1.43" duration="204.00" routeLength="267.69" timeLoss="21.53" maxSpeed="1.47"/>
    </personinfo>
    <tripinfo id="veh244" depart="159.00" departLane="250295380#1_1" departPos="71.12" departSpeed="0.00" departDelay="0.40" arrival="249.00" arrivalLane="-578560104#3_1" arrivalPos="122.64" arrivalSpeed="4.65" duration="90.00" routeLength="789.44" waitingTime="18.00" waitingCount="1" stopTime="0.00" timeLoss="36.99" rerouteNo="0" devices="tripinfo_veh244" vType="passenger" speedFactor="1.10" vaporized=""/>