<?xml version="1.0" encoding="UTF-8"?>

<!-- generated on 2025-06-15 22:54:40 by Eclipse SUMO sumo Version 1.22.0
<sumoConfiguration xmlns:xsi="http://www.w3.org/2001/XMLSchema-instance" xsi:noNamespaceSchemaLocation="http://sumo.dlr.de/xsd/sumoConfiguration.xsd">

    <input>
        <net-file value="E:/licenta/oras-mediu/2025-06-05-11-45-23\osm.net.xml"/>
        <route-files value="E:/licenta/oras-mediu/2025-06-05-11-45-23\full.rou.xml,E:/licenta/oras-mediu/2025-06-05-11-45-23\ ped.rou.xml,E:/licenta/oras-mediu/2025-06-05-11-45-23\ truck.rou.xml"/>
        <additional-files value="E:/licenta/oras-mediu/2025-06-05-11-45-23\osm.poly.xml,E:/licenta/oras-mediu/2025-06-05-11-45-23\ vtypes.xml"/>
    </input>

    <output>
        <summary-output value="E:/licenta/oras-mediu/2025-06-05-11-45-23\summary.xml"/>
        <tripinfo-output value="evaluation_run_outputs\baseline_outputs\tripinfo_baseline_ep24.xml"/>
    </output>

    <processing>
        <ignore-route-errors value="true"/>
        <tls.actuated.jam-threshold value="30"/>
    </processing>

    <routing>
        <device.rerouting.adaptation-steps value="18"/>
        <device.rerouting.adaptation-interval value="10"/>
    </routing>

    <report>
        <verbose value="true"/>
        <duration-log.statistics value="true"/>
        <no-step-log value="true"/>
    </report>

    <gui_only>
        <gui-settings-file value="E:/licenta/oras-mediu/2025-06-05-11-45-23\osm.view.xml"/>
    </gui_only>

</sumoConfiguration>
-->

<tripinfos xmlns:xsi="http://www.w3.org/2001/XMLSchema-instance" xsi:noNamespaceSchemaLocation="http://sumo.dlr.de/xsd/tripinfo_file.xsd">
    <tripinfo id="veh3" depart="2.00" departLane="48778508#3_1" departPos="1.40" departSpeed="0.00" departDelay="0.14" arrival="65.00" arrivalLane="48778485#1_1" arrivalPos="18.27" arrivalSpeed="10.19" duration="63.00" routeLength="601.27" waitingTime="0.00" waitingCount="0" stopTime="0.00" timeLoss="20.16" rerouteNo="0" devices="tripinfo_veh3" vType="passenger" speedFactor="1.08" vaporized=""/>
    <tripinfo id="veh21" depart="14.00" departLane="48778499#0_1" departPos="9.88" departSpeed="0.00" departDelay="0.98" arrival="75.00" arrivalLane="222609004#0_1" arrivalPos="29.46" arrivalSpeed="11.62" duration="61.00" routeLength="540.50" waitingTime="0.00" waitingCount="0" stopTime="0.00" timeLoss="18.51" rerouteNo="0" devices="tripinfo_veh21" vType="passenger" speedFactor="1.01" vaporized=""/>
    <tripinfo id="veh7" depart="5.00" departLane="-40314583#1_1" departPos="46.07" departSpeed="0.00" departDelay="0.66" arrival="93.00" arrivalLane="647689085_1" arrivalPos="124.55" arrivalSpeed="12.07" duration="88.00" routeLength="819.17" waitingTime="1.00" waitingCount="1" stopTime="0.00" timeLoss="21.10" rerouteNo="0" devices="tripinfo_veh7" vType="passenger" speedFactor="0.92" vaporized=""/>
    <personinfo id="ped13" depart="65.00" type="DEFAULT_PEDTYPE" speedFactor="0.99" duration="32.00" waitingTime="0.00" timeLoss="14.76" traveltime="32.00">
        <walk depart="65.00" departPos="0.00" arrival="97.00" arrivalPos="12.13" duration="32.00" routeLength="23.78" timeLoss="14.76" maxSpeed="1.38"/>
    </personinfo>
    <tripinfo id="veh110" depart="69.00" departLane="48736601_1" departPos="189.94" departSpeed="0.00" departDelay="0.80" arrival="102.00" arrivalLane="48736610#0_1" arrivalPos="66.64" arrivalSpeed="13.80" duration="33.00" routeLength="356.04" waitingTime="0.00" waitingCount="0" stopTime="0.00" timeLoss="6.75" rerouteNo="0" devices="tripinfo_veh110" vType="motorcycle" speedFactor="1.04" vaporized=""/>
    <personinfo id="ped7" depart="35.00" type="DEFAULT_PEDTYPE" speedFactor="1.09" duration="70.00" waitingTime="0.00" timeLoss="7.41" traveltime="70.00">
        <walk depart="35.00" departPos="0.00" arrival="105.00" arrivalPos="19.73" duration="70.00" routeLength="94.73" timeLoss="7.41" maxSpeed="1.51"/>
    </personinfo>
    <tripinfo id="veh88" depart="55.00" departLane="-43544001#6_1" departPos="36.63" departSpeed="0.00" departDelay="0.44" arrival="106.00" arrivalLane="-43544197#0_1" arrivalPos="48.34" arrivalSpeed="13.58" duration="51.00" routeLength="551.37" waitingTime="0.00" waitingCount="0" stopTime="0.00" timeLoss="10.27" rerouteNo="0" devices="tripinfo_veh88" vType="delivery" speedFactor="1.03" vaporized=""/>
    <tripinfo id="veh160" depart="100.00" departLane="222609002#4_1" departPos="2.81" departSpeed="0.00" departDelay="0.80" arrival="113.00" arrivalLane="-43573547#1_1" arrivalPos="26.16" arrivalSpeed="13.68" duration="13.00" routeLength="95.03" waitingTime="0.00" waitingCount="0" stopTime="0.00" timeLoss="6.04" rerouteNo="0" devices="tripinfo_veh160" vType="passenger" speedFactor="1.15" vaporized=""/>
    <tripinfo id="veh71" depart="45.00" departLane="353939585#0_2" departPos="24.40" departSpeed="0.00" departDelay="0.98" arrival="116.00" arrivalLane="-48778498#1_1" arrivalPos="23.69" arrivalSpeed="10.66" duration="71.00" routeLength="765.68" waitingTime="0.00" waitingCount="0" stopTime="0.00" timeLoss="12.22" rerouteNo="0" devices="tripinfo_veh71" vType="passenger" speedFactor="0.98" vaporized=""/>
    <tripinfo id="veh73" depart="46.00" departLane="143207979#7_1" departPos="66.09" departSpeed="0.00" departDelay="0.74" arrival="121.00" arrivalLane="-43544001#7_1" arrivalPos="45.62" arrivalSpeed="11.85" duration="75.00" routeLength="795.68" waitingTime="0.00" waitingCount="0" stopTime="0.00" timeLoss="12.75" rerouteNo="0" devices="tripinfo_veh73" vType="motorcycle" speedFactor="0.94" vaporized=""/>
    <tripinfo id="veh127" depart="79.00" departLane="-1015948619_0" departPos="3.59" departSpeed="0.00" departDelay="0.26" arrival="125.00" arrivalLane="-143207979#8_1" arrivalPos="38.62" arrivalSpeed="12.83" duration="46.00" routeLength="390.83" waitingTime="0.00" waitingCount="0" stopTime="0.00" timeLoss="10.32" rerouteNo="0" devices="tripinfo_veh127" vType="motorcycle" speedFactor="1.01" vaporized=""/>
    <tripinfo id="veh117" depart="73.00" departLane="-40330592_1" departPos="7.95" departSpeed="0.00" departDelay="0.46" arrival="126.00" arrivalLane="48778494#1_1" arrivalPos="15.92" arrivalSpeed="13.94" duration="53.00" routeLength="511.81" waitingTime="0.00" waitingCount="0" stopTime="0.00" timeLoss="15.30" rerouteNo="0" devices="tripinfo_veh117" vType="delivery" speedFactor="1.06" vaporized=""/>
    <personinfo id="ped5" depart="25.00" type="DEFAULT_PEDTYPE" speedFactor="1.03" duration="107.00" waitingTime="0.00" timeLoss="47.32" traveltime="107.00">
        <walk depart="25.00" departPos="0.00" arrival="132.00" arrivalPos="1.82" duration="107.00" routeLength="85.56" timeLoss="47.32" maxSpeed="1.43"/>
    </personinfo>
    <tripinfo id="veh83" depart="52.00" departLane="-258551321_1" departPos="108.63" departSpeed="0.00" departDelay="0.54" arrival="134.00" arrivalLane="273836978#1_1" arrivalPos="68.56" arrivalSpeed="14.52" duration="82.00" routeLength="857.30" waitingTime="1.00" waitingCount="1" stopTime="0.00" timeLoss="20.45" rerouteNo="0" devices="tripinfo_veh83" vType="passenger" speedFactor="1.06" vaporized=""/>
    <tripinfo id="veh115" depart="72.00" departLane="-48778449#2_1" departPos="59.49" departSpeed="0.00" departDelay="0.70" arrival="140.00" arrivalLane="-40266910_1" arrivalPos="146.08" arrivalSpeed="14.69" duration="68.00" routeLength="731.93" waitingTime="0.00" waitingCount="0" stopTime="0.00" timeLoss="18.08" rerouteNo="0" devices="tripinfo_veh115" vType="passenger" speedFactor="1.11" vaporized=""/>
    <tripinfo id="veh147" depart="92.00" departLane="-40266620_1" departPos="3.86" departSpeed="0.00" departDelay="0.86" arrival="142.00" arrivalLane="945793485#1_1" arrivalPos="18.52" arrivalSpeed="12.09" duration="50.00" routeLength="532.81" waitingTime="0.00" waitingCount="0" stopTime="0.00" timeLoss="11.23" rerouteNo="0" devices="tripinfo_veh147" vType="motorcycle" speedFactor="1.08" vaporized=""/>
    <tripinfo id="veh91" depart="57.00" departLane="-1158942155_1" departPos="32.35" departSpeed="0.00" departDelay="0.58" arrival="156.00" arrivalLane="-40265775#1_1" arrivalPos="75.00" arrivalSpeed="13.86" duration="99.00" routeLength="1065.41" waitingTime="2.00" waitingCount="1" stopTime="0.00" timeLoss="20.35" rerouteNo="0" devices="tripinfo_veh91" vType="delivery" speedFactor="1.01" vaporized=""/>
    <tripinfo id="veh2" depart="2.00" departLane="-48736624#1_1" departPos="27.35" departSpeed="0.00" departDelay="0.76" arrival="159.00" arrivalLane="647621858_0" arrivalPos="84.34" arrivalSpeed="5.94" duration="157.00" routeLength="1235.65" waitingTime="25.00" waitingCount="2" stopTime="0.00" timeLoss="62.11" rerouteNo="0" devices="tripinfo_veh2" vType="passenger" speedFactor="1.08" vaporized=""/>
    <tripinfo id="veh62" depart="39.00" departLane="859732803#0_0" departPos="18.16" departSpeed="0.00" departDelay="0.56" arrival="163.00" arrivalLane="48778443#2_1" arrivalPos="37.75" arrivalSpeed="13.95" duration="124.00" routeLength="1148.89" waitingTime="6.00" waitingCount="1" stopTime="0.00" timeLoss="33.50" rerouteNo="0" devices="tripinfo_veh62" vType="passenger" speedFactor="1.06" vaporized=""/>
    <tripinfo id="veh105" depart="66.00" departLane="-33909936#3_1" departPos="24.94" departSpeed="0.00" departDelay="0.90" arrival="163.00" arrivalLane="-996984133_1" arrivalPos="75.36" arrivalSpeed="8.48" duration="97.00" routeLength="835.57" waitingTime="7.00" waitingCount="1" stopTime="0.00" timeLoss="30.03" rerouteNo="0" devices="tripinfo_veh105" vType="motorcycle" speedFactor="1.10" vaporized=""/>
    <tripinfo id="veh8" depart="5.00" departLane="40265778#0_2" departPos="67.59" departSpeed="0.00" departDelay="0.04" arrival="165.00" arrivalLane="-48778485#0_1" arrivalPos="25.13" arrivalSpeed="13.92" duration="160.00" routeLength="931.42" waitingTime="58.00" waitingCount="2" stopTime="0.00" timeLoss="94.64" rerouteNo="0" devices="tripinfo_veh8" vType="passenger" speedFactor="1.12" vaporized=""/>
    <tripinfo id="veh45" depart="28.00" departLane="353939574_0" departPos="112.11" departSpeed="0.00" departDelay="0.10" arrival="166.00" arrivalLane="-1136017144_0" arrivalPos="13.63" arrivalSpeed="5.76" duration="138.00" routeLength="926.92" waitingTime="27.00" waitingCount="1" stopTime="0.00" timeLoss="47.96" rerouteNo="0" devices="tripinfo_veh45" vType="passenger" speedFactor="1.17" vaporized=""/>
    <tripinfo id="veh63" depart="40.00" departLane="-43546648#1_1" departPos="80.13" departSpeed="0.00" departDelay="0.94" arrival="167.00" arrivalLane="40330575#0_1" arrivalPos="31.86" arrivalSpeed="12.50" duration="127.00" routeLength="1228.20" waitingTime="15.00" waitingCount="1" stopTime="0.00" timeLoss="43.24" rerouteNo="0" devices="tripinfo_veh63" vType="passenger" speedFactor="1.12" vaporized=""/>
    <tripinfo id="veh68" depart="43.00" departLane="-250295380#0_1" departPos="40.69" departSpeed="0.00" departDelay="0.84" arrival="168.00" arrivalLane="-223883702_1" arrivalPos="271.06" arrivalSpeed="14.01" duration="125.00" routeLength="1493.91" waitingTime="0.00" waitingCount="0" stopTime="0.00" timeLoss="16.45" rerouteNo="0" devices="tripinfo_veh68" vType="passenger" speedFactor="1.02" vaporized=""/>
    <tripinfo id="veh93" depart="58.00" departLane="-143207979#1_1" departPos="36.73" departSpeed="0.00" departDelay="0.34" arrival="171.00" arrivalLane="48778521#0_1" arrivalPos="84.11" arrivalSpeed="7.09" duration="113.00" routeLength="1207.58" waitingTime="0.00" waitingCount="0" stopTime="0.00" timeLoss="15.47" rerouteNo="0" devices="tripinfo_veh93" vType="passenger" speedFactor="0.97" vaporized=""/>
    <personinfo id="ped2" depart="10.00" type="DEFAULT_PEDTYPE" speedFactor="1.26" duration="162.00" waitingTime="0.00" timeLoss="16.10" traveltime="162.00">
        <walk depart="10.00" departPos="0.00" arrival="172.00" arrivalPos="55.59" duration="162.00" routeLength="255.17" timeLoss="16.10" maxSpeed="1.75"/>
    </personinfo>
    <tripinfo id="veh46" depart="29.00" departLane="-250295384_1" departPos="106.37" departSpeed="0.00" departDelay="0.48" arrival="172.00" arrivalLane="-43544197#7_1" arrivalPos="49.46" arrivalSpeed="13.69" duration="143.00" routeLength="1719.43" waitingTime="0.00" waitingCount="0" stopTime="0.00" timeLoss="21.04" rerouteNo="0" devices="tripinfo_veh46" vType="passenger" speedFactor="1.05" vaporized=""/>
    <tripinfo id="veh97" depart="61.00" departLane="40236228#1_1" departPos="33.39" departSpeed="0.00" departDelay="0.86" arrival="172.00" arrivalLane="-43546793_1" arrivalPos="192.09" arrivalSpeed="13.15" duration="111.00" routeLength="1204.32" waitingTime="0.00" waitingCount="0" stopTime="0.00" timeLoss="18.94" rerouteNo="0" devices="tripinfo_veh97" vType="motorcycle" speedFactor="0.98" vaporized=""/>
    <tripinfo id="veh27" depart="17.00" departLane="40334244#0_1" departPos="16.26" departSpeed="0.00" departDelay="0.26" arrival="173.00" arrivalLane="-43573547#1_1" arrivalPos="26.16" arrivalSpeed="12.68" duration="156.00" routeLength="1800.95" waitingTime="6.00" waitingCount="1" stopTime="0.00" timeLoss="36.00" rerouteNo="0" devices="tripinfo_veh27" vType="passenger" speedFactor="1.12" vaporized=""/>
    <tripinfo id="veh50" depart="31.00" departLane="-48778492_1" departPos="32.49" departSpeed="0.00" departDelay="0.00" arrival="173.00" arrivalLane="43547296#1_1" arrivalPos="14.14" arrivalSpeed="13.02" duration="142.00" routeLength="1351.43" waitingTime="17.00" waitingCount="1" stopTime="0.00" timeLoss="39.04" rerouteNo="0" devices="tripinfo_veh50" vType="delivery" speedFactor="0.98" vaporized=""/>
    <tripinfo id="veh90" depart="56.00" departLane="1054663939_1" departPos="4.21" departSpeed="0.00" departDelay="0.20" arrival="176.00" arrivalLane="984521611#1_0" arrivalPos="22.34" arrivalSpeed="4.30" duration="120.00" routeLength="739.35" waitingTime="25.00" waitingCount="1" stopTime="0.00" timeLoss="45.89" rerouteNo="0" devices="tripinfo_veh90" vType="passenger" speedFactor="0.87" vaporized=""/>
    <tripinfo id="veh29" depart="18.00" departLane="1017995181_1" departPos="8.31" departSpeed="0.00" departDelay="0.02" arrival="177.00" arrivalLane="48778480#5_2" arrivalPos="195.85" arrivalSpeed="13.52" duration="159.00" routeLength="1438.16" waitingTime="15.00" waitingCount="2" stopTime="0.00" timeLoss="50.81" rerouteNo="0" devices="tripinfo_veh29" vType="passenger" speedFactor="0.99" vaporized=""/>
    <tripinfo id="veh43" depart="27.00" departLane="48797772_1" departPos="69.44" departSpeed="0.00" departDelay="0.34" arrival="179.00" arrivalLane="250295380#0_1" arrivalPos="168.52" arrivalSpeed="11.40" duration="152.00" routeLength="1270.49" waitingTime="8.00" waitingCount="1" stopTime="0.00" timeLoss="38.70" rerouteNo="0" devices="tripinfo_veh43" vType="passenger" speedFactor="0.88" vaporized=""/>
    <personinfo id="ped8" depart="40.00" type="DEFAULT_PEDTYPE" speedFactor="1.10" duration="140.00" waitingTime="0.00" timeLoss="14.00" traveltime="140.00">
        <walk depart="40.00" departPos="0.00" arrival="180.00" arrivalPos="20.50" duration="140.00" routeLength="192.47" timeLoss="14.00" maxSpeed="1.53"/>
    </personinfo>
    <tripinfo id="veh111" depart="69.00" departLane="-1136289991_1" departPos="1.19" departSpeed="0.00" departDelay="0.18" arrival="183.00" arrivalLane="48778486_1" arrivalPos="28.07" arrivalSpeed="12.26" duration="114.00" routeLength="1182.81" waitingTime="0.00" waitingCount="0" stopTime="0.00" timeLoss="24.38" rerouteNo="0" devices="tripinfo_veh111" vType="passenger" speedFactor="1.01" vaporized=""/>
    <tripinfo id="veh30" depart="19.00" departLane="-1205541343#0_1" departPos="9.16" departSpeed="0.00" departDelay="0.40" arrival="185.00" arrivalLane="-945794111_1" arrivalPos="62.47" arrivalSpeed="7.21" duration="166.00" routeLength="1808.65" waitingTime="1.00" waitingCount="1" stopTime="0.00" timeLoss="22.32" rerouteNo="0" devices="tripinfo_veh30" vType="passenger" speedFactor="0.97" vaporized=""/>
    <tripinfo id="veh85" depart="53.00" departLane="174818022#0_0" departPos="12.93" departSpeed="0.00" departDelay="0.30" arrival="192.00" arrivalLane="1135772297_0" arrivalPos="4.72" arrivalSpeed="5.79" duration="139.00" routeLength="1296.06" waitingTime="0.00" waitingCount="0" stopTime="0.00" timeLoss="18.51" rerouteNo="0" devices="tripinfo_veh85" vType="passenger" speedFactor="1.08" vaporized=""/>
    <tripinfo id="veh23" depart="15.00" departLane="48778520_1" departPos="5.66" departSpeed="0.00" departDelay="0.74" arrival="194.00" arrivalLane="43546789#2_1" arrivalPos="71.56" arrivalSpeed="13.62" duration="179.00" routeLength="2088.30" waitingTime="0.00" waitingCount="0" stopTime="0.00" timeLoss="27.71" rerouteNo="0" devices="tripinfo_veh23" vType="passenger" speedFactor="1.03" vaporized=""/>
    <tripinfo id="veh118" depart="74.00" departLane="40334245#0_1" departPos="34.53" departSpeed="0.00" departDelay="0.84" arrival="196.00" arrivalLane="48778485#1_1" arrivalPos="18.27" arrivalSpeed="12.75" duration="122.00" routeLength="1412.84" waitingTime="0.00" waitingCount="0" stopTime="0.00" timeLoss="33.49" rerouteNo="0" devices="tripinfo_veh118" vType="passenger" speedFactor="1.21" vaporized=""/>
    <tripinfo id="veh64" depart="40.00" departLane="48778517#0_1" departPos="36.14" departSpeed="0.00" departDelay="0.32" arrival="197.00" arrivalLane="-48778473#2_1" arrivalPos="37.09" arrivalSpeed="12.46" duration="157.00" routeLength="1632.68" waitingTime="12.00" waitingCount="2" stopTime="0.00" timeLoss="39.24" rerouteNo="0" devices="tripinfo_veh64" vType="passenger" speedFactor="1.03" vaporized=""/>
    <tripinfo id="veh146" depart="91.00" departLane="-992542694_0" departPos="42.29" departSpeed="0.00" departDelay="0.48" arrival="198.00" arrivalLane="43573547#0_1" arrivalPos="148.85" arrivalSpeed="11.97" duration="107.00" routeLength="1114.55" waitingTime="0.00" waitingCount="0" stopTime="0.00" timeLoss="20.72" rerouteNo="0" devices="tripinfo_veh146" vType="motorcycle" speedFactor="0.98" vaporized=""/>
    <tripinfo id="veh221" depart="138.00" departLane="43544184#1_1" departPos="0.17" departSpeed="0.00" departDelay="0.98" arrival="202.00" arrivalLane="48778431#5_1" arrivalPos="316.25" arrivalSpeed="15.51" duration="64.00" routeLength="818.02" waitingTime="0.00" waitingCount="0" stopTime="0.00" timeLoss="11.01" rerouteNo="0" devices="tripinfo_veh221" vType="delivery" speedFactor="1.13" vaporized=""/>
    <tripinfo id="veh196" depart="122.00" departLane="-859738989#2_0" departPos="21.65" departSpeed="0.00" departDelay="0.48" arrival="203.00" arrivalLane="995053161_0" arrivalPos="105.15" arrivalSpeed="5.00" duration="81.00" routeLength="453.58" waitingTime="0.00" waitingCount="0" stopTime="0.00" timeLoss="11.89" rerouteNo="0" devices="tripinfo_veh196" vType="delivery" speedFactor="1.01" vaporized=""/>
    <tripinfo id="veh15" depart="10.00" departLane="48797765#1_1" departPos="15.77" departSpeed="0.00" departDelay="0.70" arrival="205.00" arrivalLane="-143207982#2_1" arrivalPos="8.52" arrivalSpeed="12.97" duration="195.00" routeLength="1876.23" waitingTime="19.00" waitingCount="2" stopTime="0.00" timeLoss="50.80" rerouteNo="0" devices="tripinfo_veh15" vType="passenger" speedFactor="1.02" vaporized=""/>
    <tripinfo id="veh53" depart="33.00" departLane="-40330592_1" departPos="24.04" departSpeed="0.00" departDelay="0.14" arrival="206.00" arrivalLane="-40306162#0_1" arrivalPos="91.74" arrivalSpeed="12.93" duration="173.00" routeLength="1255.25" waitingTime="42.00" waitingCount="2" stopTime="0.00" timeLoss="76.56" rerouteNo="0" devices="tripinfo_veh53" vType="passenger" speedFactor="1.00" vaporized=""/>
    <tripinfo id="veh69" depart="43.00" departLane="647741479_1" departPos="102.33" departSpeed="0.00" departDelay="0.22" arrival="206.00" arrivalLane="-996984133_1" arrivalPos="75.36" arrivalSpeed="8.74" duration="163.00" routeLength="1429.73" waitingTime="38.00" waitingCount="1" stopTime="0.00" timeLoss="59.76" rerouteNo="0" devices="tripinfo_veh69" vType="passenger" speedFactor="1.08" vaporized=""/>
    <tripinfo id="veh52" depart="33.00" departLane="-92198451#1_1" departPos="279.94" departSpeed="0.00" departDelay="0.76" arrival="208.00" arrivalLane="647755347#1_1" arrivalPos="34.98" arrivalSpeed="13.00" duration="175.00" routeLength="1667.52" waitingTime="27.00" waitingCount="2" stopTime="0.00" timeLoss="55.28" rerouteNo="0" devices="tripinfo_veh52" vType="passenger" speedFactor="1.02" vaporized=""/>
    <tripinfo id="veh67" depart="42.00" departLane="-996489799#1_0" departPos="41.99" departSpeed="0.00" departDelay="0.46" arrival="210.00" arrivalLane="-1136283380_1" arrivalPos="22.56" arrivalSpeed="7.36" duration="168.00" routeLength="1052.04" waitingTime="42.00" waitingCount="1" stopTime="0.00" timeLoss="60.93" rerouteNo="0" devices="tripinfo_veh67" vType="passenger" speedFactor="0.90" vaporized=""/>
    <tripinfo id="veh150" depart="93.00" departLane="-143207979#0_1" departPos="9.87" departSpeed="0.00" departDelay="0.00" arrival="214.00" arrivalLane="-67712683_1" arrivalPos="77.22" arrivalSpeed="12.76" duration="121.00" routeLength="1258.38" waitingTime="0.00" waitingCount="0" stopTime="0.00" timeLoss="19.48" rerouteNo="0" devices="tripinfo_veh150" vType="passenger" speedFactor="0.93" vaporized=""/>
    <tripinfo id="veh94" depart="59.00" departLane="1250915722#4_1" departPos="49.90" departSpeed="0.00" departDelay="0.72" arrival="215.00" arrivalLane="-40334244#0_1" arrivalPos="88.65" arrivalSpeed="6.18" duration="156.00" routeLength="938.14" waitingTime="0.00" waitingCount="0" stopTime="0.00" timeLoss="12.49" rerouteNo="0" devices="tripinfo_veh94" vType="bicycle" speedFactor="1.18" vaporized=""/>
    <tripinfo id="veh120" depart="75.00" departLane="223883702_1" departPos="225.37" departSpeed="0.00" departDelay="0.60" arrival="215.00" arrivalLane="1205541343#1_1" arrivalPos="33.13" arrivalSpeed="5.05" duration="140.00" routeLength="1315.21" waitingTime="11.00" waitingCount="1" stopTime="0.00" timeLoss="31.13" rerouteNo="0" devices="tripinfo_veh120" vType="passenger" speedFactor="0.97" vaporized=""/>
    <tripinfo id="veh65" depart="41.00" departLane="222605084#3_1" departPos="1.70" departSpeed="0.00" departDelay="0.70" arrival="217.00" arrivalLane="33910068#0_1" arrivalPos="177.10" arrivalSpeed="12.21" duration="176.00" routeLength="1618.39" waitingTime="2.00" waitingCount="1" stopTime="0.00" timeLoss="22.95" rerouteNo="0" devices="tripinfo_veh65" vType="passenger" speedFactor="0.92" vaporized=""/>
    <tripinfo id="veh70" depart="44.00" departLane="-48736666#0_1" departPos="39.29" departSpeed="0.00" departDelay="0.60" arrival="218.00" arrivalLane="-353939570#7_2" arrivalPos="11.97" arrivalSpeed="9.70" duration="174.00" routeLength="1470.01" waitingTime="26.00" waitingCount="2" stopTime="0.00" timeLoss="53.96" rerouteNo="0" devices="tripinfo_veh70" vType="passenger" speedFactor="0.98" vaporized=""/>
    <tripinfo id="veh136" depart="85.00" departLane="-48736620#5_2" departPos="9.62" departSpeed="0.00" departDelay="0.68" arrival="218.00" arrivalLane="40295499#0_1" arrivalPos="60.93" arrivalSpeed="9.84" duration="133.00" routeLength="1247.92" waitingTime="5.00" waitingCount="1" stopTime="0.00" timeLoss="30.25" rerouteNo="0" devices="tripinfo_veh136" vType="motorcycle" speedFactor="0.91" vaporized=""/>
    <tripinfo id="veh109" depart="68.00" departLane="-647610982#2_1" departPos="1.54" departSpeed="0.00" departDelay="0.42" arrival="219.00" arrivalLane="492965073#9_2" arrivalPos="76.43" arrivalSpeed="13.91" duration="151.00" routeLength="1526.53" waitingTime="13.00" waitingCount="1" stopTime="0.00" timeLoss="41.17" rerouteNo="0" devices="tripinfo_veh109" vType="passenger" speedFactor="1.04" vaporized=""/>
    <tripinfo id="veh5" depart="4.00" departLane="-1136289990_1" departPos="7.85" departSpeed="0.00" departDelay="0.90" arrival="220.00" arrivalLane="-48736620#3_1" arrivalPos="26.74" arrivalSpeed="13.57" duration="216.00" routeLength="2693.00" waitingTime="0.00" waitingCount="0" stopTime="0.00" timeLoss="19.38" rerouteNo="0" devices="tripinfo_veh5" vType="passenger" speedFactor="1.02" vaporized=""/>
    <tripinfo id="veh242" depart="151.00" departLane="1136301812#1_1" departPos="2.84" departSpeed="0.00" departDelay="0.96" arrival="220.00" arrivalLane="-250295513_1" arrivalPos="43.99" arrivalSpeed="13.20" duration="69.00" routeLength="650.47" waitingTime="0.00" waitingCount="0" stopTime="0.00" timeLoss="16.29" rerouteNo="0" devices="tripinfo_veh242" vType="passenger" speedFactor="0.98" vaporized=""/>
    <tripinfo id="veh77" depart="48.00" departLane="250295513_1" departPos="33.50" departSpeed="0.00" departDelay="0.26" arrival="222.00" arrivalLane="1136283361_0" arrivalPos="47.88" arrivalSpeed="3.61" duration="174.00" routeLength="1623.15" waitingTime="0.00" waitingCount="0" stopTime="0.00" timeLoss="24.28" rerouteNo="0" devices="tripinfo_veh77" vType="passenger" speedFactor="0.86" vaporized=""/>
    <tripinfo id="veh37" depart="23.00" departLane="-48778486_1" departPos="2.94" departSpeed="0.00" departDelay="0.06" arrival="223.00" arrivalLane="48736655_1" arrivalPos="17.43" arrivalSpeed="10.45" duration="200.00" routeLength="2271.35" waitingTime="4.00" waitingCount="1" stopTime="0.00" timeLoss="36.26" rerouteNo="0" devices="tripinfo_veh37" vType="passenger" speedFactor="1.03" vaporized=""/>
    <tripinfo id="veh49" depart="31.00" departLane="48736620#1_2" departPos="39.52" departSpeed="0.00" departDelay="0.62" arrival="223.00" arrivalLane="-48736613#0_1" arrivalPos="29.50" arrivalSpeed="11.10" duration="192.00" routeLength="1634.10" waitingTime="31.00" waitingCount="3" stopTime="0.00" timeLoss="59.46" rerouteNo="0" devices="tripinfo_veh49" vType="motorcycle" speedFactor="0.90" vaporized=""/>
    <tripinfo id="veh275" depart="171.00" departLane="-48797773_1" departPos="11.60" departSpeed="0.00" departDelay="0.50" arrival="223.00" arrivalLane="-1135856957_0" arrivalPos="27.07" arrivalSpeed="5.17" duration="52.00" routeLength="442.27" waitingTime="0.00" waitingCount="0" stopTime="0.00" timeLoss="16.10" rerouteNo="0" devices="tripinfo_veh275" vType="delivery" speedFactor="1.08" vaporized=""/>
    <tripinfo id="veh104" depart="65.00" departLane="48736656#1_1" departPos="16.93" departSpeed="0.00" departDelay="0.52" arrival="224.00" arrivalLane="530106516#0_1" arrivalPos="77.36" arrivalSpeed="15.11" duration="159.00" routeLength="1268.83" waitingTime="43.00" waitingCount="3" stopTime="0.00" timeLoss="75.49" rerouteNo="0" devices="tripinfo_veh104" vType="passenger" speedFactor="1.12" vaporized=""/>
    <tripinfo id="veh44" depart="28.00" departLane="40299739#3_1" departPos="35.07" departSpeed="0.00" departDelay="0.72" arrival="226.00" arrivalLane="-33909936#3_1" arrivalPos="25.37" arrivalSpeed="13.30" duration="198.00" routeLength="2309.52" waitingTime="10.00" waitingCount="2" stopTime="0.00" timeLoss="38.01" rerouteNo="0" devices="tripinfo_veh44" vType="passenger" speedFactor="1.06" vaporized=""/>
    <tripinfo id="veh245" depart="152.00" departLane="-48778514#1_1" departPos="237.57" departSpeed="0.00" departDelay="0.10" arrival="226.00" arrivalLane="-222609002#3_1" arrivalPos="89.31" arrivalSpeed="12.81" duration="74.00" routeLength="821.20" waitingTime="0.00" waitingCount="0" stopTime="0.00" timeLoss="11.14" rerouteNo="0" devices="tripinfo_veh245" vType="delivery" speedFactor="0.97" vaporized=""/>
    <tripinfo id="veh170" depart="106.00" departLane="-92198451#0_1" departPos="0.51" departSpeed="0.00" departDelay="0.60" arrival="227.00" arrivalLane="43546519#2_1" arrivalPos="8.00" arrivalSpeed="10.01" duration="121.00" routeLength="999.53" waitingTime="11.00" waitingCount="2" stopTime="0.00" timeLoss="29.13" rerouteNo="0" devices="tripinfo_veh170" vType="passenger" speedFactor="0.80" vaporized=""/>
    <tripinfo id="veh172" depart="107.00" departLane="-43544179#6_1" departPos="18.08" departSpeed="0.00" departDelay="0.36" arrival="228.00" arrivalLane="-48778518_1" arrivalPos="22.20" arrivalSpeed="7.85" duration="121.00" routeLength="1280.79" waitingTime="0.00" waitingCount="0" stopTime="0.00" timeLoss="23.84" rerouteNo="0" devices="tripinfo_veh172" vType="delivery" speedFactor="1.03" vaporized=""/>
    <tripinfo id="veh42" depart="27.00" departLane="92198452#1_1" departPos="45.42" departSpeed="0.00" departDelay="0.96" arrival="230.00" arrivalLane="E37_1" arrivalPos="64.97" arrivalSpeed="12.84" duration="203.00" routeLength="1830.98" waitingTime="36.00" waitingCount="2" stopTime="0.00" timeLoss="63.55" rerouteNo="0" devices="tripinfo_veh42" vType="passenger" speedFactor="0.95" vaporized=""/>
    <tripinfo id="veh138" depart="86.00" departLane="-48778505#0_1" departPos="79.16" departSpeed="0.00" departDelay="0.44" arrival="230.00" arrivalLane="-43544202#0_1" arrivalPos="273.71" arrivalSpeed="12.57" duration="144.00" routeLength="1584.26" waitingTime="1.00" waitingCount="1" stopTime="0.00" timeLoss="24.95" rerouteNo="0" devices="tripinfo_veh138" vType="passenger" speedFactor="0.98" vaporized=""/>
    <tripinfo id="veh114" depart="71.00" departLane="-578560104#3_1" departPos="9.00" departSpeed="0.00" departDelay="0.32" arrival="231.00" arrivalLane="-48736621#2_1" arrivalPos="13.16" arrivalSpeed="8.81" duration="160.00" routeLength="1636.60" waitingTime="28.00" waitingCount="1" stopTime="0.00" timeLoss="46.74" rerouteNo="0" devices="tripinfo_veh114" vType="passenger" speedFactor="1.06" vaporized=""/>
    <tripinfo id="veh228" depart="142.00" departLane="43573573#4_1" departPos="33.29" departSpeed="0.00" departDelay="0.64" arrival="231.00" arrivalLane="-48778508#2_1" arrivalPos="0.58" arrivalSpeed="12.24" duration="89.00" routeLength="841.30" waitingTime="2.00" waitingCount="2" stopTime="0.00" timeLoss="22.91" rerouteNo="0" devices="tripinfo_veh228" vType="passenger" speedFactor="0.95" vaporized=""/>