<?xml version="1.0" encoding="UTF-8"?>

<!-- generated on 2025-06-15 21:33:05 by Eclipse SUMO sumo Version 1.22.0
<sumoConfiguration xmlns:xsi="http://www.w3.org/2001/XMLSchema-instance" xsi:noNamespaceSchemaLocation="http://sumo.dlr.de/xsd/sumoConfiguration.xsd">

    <input>
        <net-file value="E:/licenta/oras-mediu/2025-06-05-11-45-23\osm.net.xml"/>
        <route-files value="E:/licenta/oras-mediu/2025-06-05-11-45-23\full.rou.xml,E:/licenta/oras-mediu/2025-06-05-11-45-23\ ped.rou.xml,E:/licenta/oras-mediu/2025-06-05-11-45-23\ truck.rou.xml"/>
        <additional-files value="E:/licenta/oras-mediu/2025-06-05-11-45-23\osm.poly.xml,E:/licenta/oras-mediu/2025-06-05-11-45-23\ vtypes.xml"/>
    </input>

    <output>
        <summary-output value="E:/licenta/oras-mediu/2025-06-05-11-45-23\summary.xml"/>
        <tripinfo-output value="evaluation_run_outputs\baseline_outputs\tripinfo_baseline_ep3.xml"/>
    </output>

    <processing>
        <ignore-route-errors value="true"/>
        <tls.actuated.jam-threshold value="30"/>
    </processing>

    <routing>
        <device.rerouting.adaptation-steps value="18"/>
        <device.rerouting.adaptation-interval value="10"/>
    </routing>

    <report>
        <verbose value="true"/>
        <duration-log.statistics value="true"/>
        <no-step-log value="true"/>
    </report>

    <gui_only>
        <gui-settings-file value="E:/licenta/oras-mediu/2025-06-05-11-45-23\osm.view.xml"/>
    </gui_only>

</sumoConfiguration>
-->

<tripinfos xmlns:xsi="http://www.w3.org/2001/XMLSchema-instance" xsi:noNamespaceSchemaLocation="http://sumo.dlr.de/xsd/tripinfo_file.xsd">
    <tripinfo id="veh41" depart="20.00" departLane="996984133_1" departPos="27.35" departSpeed="0.00" departDelay="0.32" arrival="80.00" arrivalLane="1158942155_1" arrivalPos="54.59" arrivalSpeed="14.50" duration="60.00" routeLength="305.72" waitingTime="22.00" waitingCount="1" stopTime="0.00" timeLoss="34.57" rerouteNo="0" devices="tripinfo_veh41" vType="passenger" speedFactor="1.05" vaporized=""/>
    <tripinfo id="veh18" depart="9.00" departLane="-40330592_1" departPos="3.76" departSpeed="0.00" departDelay="0.36" arrival="82.00" arrivalLane="-1250915720#3_1" arrivalPos="2.51" arrivalSpeed="5.02" duration="73.00" routeLength="553.30" waitingTime="0.00" waitingCount="0" stopTime="0.00" timeLoss="15.70" rerouteNo="0" devices="tripinfo_veh18" vType="passenger" speedFactor="1.01" vaporized=""/>
    <tripinfo id="veh13" depart="7.00" departLane="48778456#0_1" departPos="13.95" departSpeed="0.00" departDelay="0.76" arrival="88.00" arrivalLane="945793485#0_1" arrivalPos="25.00" arrivalSpeed="11.36" duration="81.00" routeLength="716.22" waitingTime="0.00" waitingCount="0" stopTime="0.00" timeLoss="24.55" rerouteNo="0" devices="tripinfo_veh13" vType="emergency" speedFactor="1.00" vaporized=""/>
    <tripinfo id="veh32" depart="16.00" departLane="174818022#0_0" departPos="16.66" departSpeed="0.00" departDelay="0.64" arrival="91.00" arrivalLane="48736665_1" arrivalPos="14.66" arrivalSpeed="9.41" duration="75.00" routeLength="488.38" waitingTime="0.00" waitingCount="0" stopTime="0.00" timeLoss="11.26" rerouteNo="0" devices="tripinfo_veh32" vType="passenger" speedFactor="1.03" vaporized=""/>
    <tripinfo id="veh25" depart="12.00" departLane="-43544197#6_1" departPos="9.85" departSpeed="0.00" departDelay="0.00" arrival="93.00" arrivalLane="48778525#2_1" arrivalPos="124.59" arrivalSpeed="12.77" duration="81.00" routeLength="877.65" waitingTime="0.00" waitingCount="0" stopTime="0.00" timeLoss="15.23" rerouteNo="0" devices="tripinfo_veh25" vType="passenger" speedFactor="0.99" vaporized=""/>
    <personinfo id="ped9" depart="45.00" type="DEFAULT_PEDTYPE" speedFactor="1.05" duration="53.00" waitingTime="0.00" timeLoss="5.67" traveltime="53.00">
        <walk depart="45.00" departPos="0.00" arrival="98.00" arrivalPos="31.80" duration="53.00" routeLength="69.20" timeLoss="5.67" maxSpeed="1.46"/>
    </personinfo>
    <tripinfo id="veh106" depart="51.00" departLane="48736637_1" departPos="2.56" departSpeed="0.00" departDelay="0.12" arrival="101.00" arrivalLane="-48736638#1_1" arrivalPos="84.57" arrivalSpeed="13.19" duration="50.00" routeLength="345.86" waitingTime="0.00" waitingCount="0" stopTime="0.00" timeLoss="12.80" rerouteNo="0" devices="tripinfo_veh106" vType="passenger" speedFactor="1.04" vaporized=""/>
    <tripinfo id="veh166" depart="80.00" departLane="1232511776#0_1" departPos="38.45" departSpeed="0.00" departDelay="0.32" arrival="111.00" arrivalLane="48778515_1" arrivalPos="19.64" arrivalSpeed="5.88" duration="31.00" routeLength="292.94" waitingTime="0.00" waitingCount="0" stopTime="0.00" timeLoss="7.00" rerouteNo="0" devices="tripinfo_veh166" vType="motorcycle" speedFactor="1.00" vaporized=""/>
    <tripinfo id="veh12" depart="6.00" departLane="40236220#2_1" departPos="7.99" departSpeed="0.00" departDelay="0.24" arrival="120.00" arrivalLane="-251916699#1_1" arrivalPos="101.92" arrivalSpeed="12.42" duration="114.00" routeLength="1233.70" waitingTime="4.00" waitingCount="1" stopTime="0.00" timeLoss="20.20" rerouteNo="0" devices="tripinfo_veh12" vType="delivery" speedFactor="0.97" vaporized=""/>
    <tripinfo id="veh75" depart="36.00" departLane="-92198451#0.58_2" departPos="1.98" departSpeed="0.00" departDelay="0.00" arrival="125.00" arrivalLane="250295384_1" arrivalPos="124.18" arrivalSpeed="12.38" duration="89.00" routeLength="825.52" waitingTime="8.00" waitingCount="1" stopTime="0.00" timeLoss="21.57" rerouteNo="0" devices="tripinfo_veh75" vType="passenger" speedFactor="0.91" vaporized=""/>
    <tripinfo id="veh54" depart="26.00" departLane="-40299276#0_1" departPos="3.58" departSpeed="0.00" departDelay="0.08" arrival="129.00" arrivalLane="48736631_1" arrivalPos="82.80" arrivalSpeed="6.51" duration="103.00" routeLength="972.82" waitingTime="0.00" waitingCount="0" stopTime="0.00" timeLoss="15.86" rerouteNo="0" devices="tripinfo_veh54" vType="passenger" speedFactor="0.91" vaporized=""/>
    <tripinfo id="veh124" depart="60.00" departLane="48778457#0_1" departPos="0.04" departSpeed="0.00" departDelay="0.48" arrival="136.00" arrivalLane="48778449#1_1" arrivalPos="70.68" arrivalSpeed="16.35" duration="76.00" routeLength="699.02" waitingTime="0.00" waitingCount="0" stopTime="0.00" timeLoss="26.67" rerouteNo="0" devices="tripinfo_veh124" vType="passenger" speedFactor="1.18" vaporized=""/>
    <tripinfo id="veh177" depart="85.00" departLane="996984133_1" departPos="60.26" departSpeed="0.00" departDelay="0.04" arrival="136.00" arrivalLane="-33909936#2_1" arrivalPos="60.97" arrivalSpeed="13.48" duration="51.00" routeLength="502.21" waitingTime="0.00" waitingCount="0" stopTime="0.00" timeLoss="11.31" rerouteNo="0" devices="tripinfo_veh177" vType="motorcycle" speedFactor="1.00" vaporized=""/>
    <tripinfo id="veh1" depart="1.00" departLane="43544001#1_1" departPos="1.12" departSpeed="0.00" departDelay="0.52" arrival="145.00" arrivalLane="E15_1" arrivalPos="55.92" arrivalSpeed="14.84" duration="144.00" routeLength="1915.54" waitingTime="0.00" waitingCount="0" stopTime="0.00" timeLoss="15.35" rerouteNo="0" devices="tripinfo_veh1" vType="passenger" speedFactor="1.08" vaporized=""/>
    <tripinfo id="veh33" depart="16.00" departLane="-1250915720#2_1" departPos="2.69" departSpeed="0.00" departDelay="0.16" arrival="145.00" arrivalLane="984508802_0" arrivalPos="57.38" arrivalSpeed="5.58" duration="129.00" routeLength="747.85" waitingTime="26.00" waitingCount="1" stopTime="0.00" timeLoss="48.48" rerouteNo="0" devices="tripinfo_veh33" vType="passenger" speedFactor="1.07" vaporized=""/>
    <tripinfo id="veh111" depart="54.00" departLane="40299241#0_1" departPos="56.43" departSpeed="0.00" departDelay="0.72" arrival="145.00" arrivalLane="48736650#2_1" arrivalPos="16.21" arrivalSpeed="9.72" duration="91.00" routeLength="713.50" waitingTime="0.00" waitingCount="0" stopTime="0.00" timeLoss="22.19" rerouteNo="0" devices="tripinfo_veh111" vType="passenger" speedFactor="1.06" vaporized=""/>
    <tripinfo id="veh50" depart="24.00" departLane="40299264#1_1" departPos="19.74" departSpeed="0.00" departDelay="0.00" arrival="150.00" arrivalLane="-48736607#1_1" arrivalPos="193.73" arrivalSpeed="15.52" duration="126.00" routeLength="1125.49" waitingTime="26.00" waitingCount="1" stopTime="0.00" timeLoss="49.91" rerouteNo="0" devices="tripinfo_veh50" vType="passenger" speedFactor="1.12" vaporized=""/>
    <tripinfo id="veh48" depart="24.00" departLane="33909936#3_1" departPos="3.07" departSpeed="0.00" departDelay="0.96" arrival="153.00" arrivalLane="40266620_1" arrivalPos="32.51" arrivalSpeed="12.42" duration="129.00" routeLength="1370.57" waitingTime="0.00" waitingCount="0" stopTime="0.00" timeLoss="29.13" rerouteNo="0" devices="tripinfo_veh48" vType="passenger" speedFactor="1.02" vaporized=""/>
    <tripinfo id="veh81" depart="39.00" departLane="258551281_1" departPos="19.27" departSpeed="0.00" departDelay="0.12" arrival="154.00" arrivalLane="-256684296_0" arrivalPos="80.07" arrivalSpeed="1.30" duration="115.00" routeLength="846.10" waitingTime="0.00" waitingCount="0" stopTime="0.00" timeLoss="17.49" rerouteNo="0" devices="tripinfo_veh81" vType="passenger" speedFactor="0.89" vaporized=""/>
    <tripinfo id="veh61" depart="30.00" departLane="-48797765#2_1" departPos="7.42" departSpeed="0.00" departDelay="0.72" arrival="156.00" arrivalLane="984508802_0" arrivalPos="57.38" arrivalSpeed="4.58" duration="126.00" routeLength="1108.21" waitingTime="0.00" waitingCount="0" stopTime="0.00" timeLoss="22.07" rerouteNo="0" devices="tripinfo_veh61" vType="passenger" speedFactor="0.92" vaporized=""/>
    <tripinfo id="veh109" depart="53.00" departLane="-647762524_1" departPos="16.27" departSpeed="0.00" departDelay="0.68" arrival="157.00" arrivalLane="984521613_0" arrivalPos="62.42" arrivalSpeed="4.53" duration="104.00" routeLength="663.19" waitingTime="28.00" waitingCount="1" stopTime="0.00" timeLoss="45.64" rerouteNo="0" devices="tripinfo_veh109" vType="emergency" speedFactor="1.00" vaporized=""/>
    <tripinfo id="veh211" depart="102.00" departLane="1136284448_1" departPos="30.29" departSpeed="0.00" departDelay="0.72" arrival="157.00" arrivalLane="48778505#2_1" arrivalPos="58.26" arrivalSpeed="12.16" duration="55.00" routeLength="490.45" waitingTime="4.00" waitingCount="1" stopTime="0.00" timeLoss="15.81" rerouteNo="0" devices="tripinfo_veh211" vType="passenger" speedFactor="0.96" vaporized=""/>
    <tripinfo id="veh248" depart="120.00" departLane="222605084#9_1" departPos="0.23" departSpeed="0.00" departDelay="0.96" arrival="162.00" arrivalLane="-222605084#9_1" arrivalPos="2.21" arrivalSpeed="4.87" duration="42.00" routeLength="212.12" waitingTime="0.00" waitingCount="0" stopTime="0.00" timeLoss="5.19" rerouteNo="0" devices="tripinfo_veh248" vType="passenger" speedFactor="1.05" vaporized=""/>
    <tripinfo id="veh86" depart="42.00" departLane="383582503_0" departPos="2.82" departSpeed="0.00" departDelay="0.72" arrival="167.00" arrivalLane="-43546460#4_1" arrivalPos="197.29" arrivalSpeed="16.10" duration="125.00" routeLength="1745.99" waitingTime="0.00" waitingCount="0" stopTime="0.00" timeLoss="13.18" rerouteNo="0" devices="tripinfo_veh86" vType="passenger" speedFactor="1.25" vaporized=""/>
    <tripinfo id="veh44" depart="22.00" departLane="264868325_1" departPos="95.93" departSpeed="0.00" departDelay="0.88" arrival="169.00" arrivalLane="-40236144#2_1" arrivalPos="51.63" arrivalSpeed="5.99" duration="147.00" routeLength="836.26" waitingTime="0.00" waitingCount="0" stopTime="0.00" timeLoss="9.90" rerouteNo="0" devices="tripinfo_veh44" vType="bicycle" speedFactor="1.10" vaporized=""/>
    <tripinfo id="veh21" depart="11.00" departLane="40236203#0_1" departPos="10.45" departSpeed="0.00" departDelay="0.92" arrival="171.00" arrivalLane="-1136119743#0_1" arrivalPos="24.46" arrivalSpeed="9.31" duration="160.00" routeLength="1303.96" waitingTime="30.00" waitingCount="2" stopTime="0.00" timeLoss="63.43" rerouteNo="0" devices="tripinfo_veh21" vType="passenger" speedFactor="1.13" vaporized=""/>
    <tripinfo id="veh9" depart="5.00" departLane="-859728207_0" departPos="8.42" departSpeed="0.00" departDelay="0.68" arrival="172.00" arrivalLane="671642318#0_1" arrivalPos="87.54" arrivalSpeed="11.35" duration="167.00" routeLength="1642.45" waitingTime="0.00" waitingCount="0" stopTime="0.00" timeLoss="17.74" rerouteNo="0" devices="tripinfo_veh9" vType="passenger" speedFactor="0.90" vaporized=""/>
    <tripinfo id="veh89" depart="43.00" departLane="-48797767#1_1" departPos="28.86" departSpeed="0.00" departDelay="0.28" arrival="174.00" arrivalLane="647755347#1_1" arrivalPos="34.98" arrivalSpeed="14.11" duration="131.00" routeLength="1278.44" waitingTime="7.00" waitingCount="1" stopTime="0.00" timeLoss="39.99" rerouteNo="0" devices="tripinfo_veh89" vType="passenger" speedFactor="1.10" vaporized=""/>
    <tripinfo id="veh80" depart="39.00" departLane="43546460#4_1" departPos="67.22" departSpeed="0.00" departDelay="0.60" arrival="175.00" arrivalLane="-401741889#0_1" arrivalPos="387.33" arrivalSpeed="13.95" duration="136.00" routeLength="1772.50" waitingTime="0.00" waitingCount="0" stopTime="0.00" timeLoss="14.21" rerouteNo="0" devices="tripinfo_veh80" vType="passenger" speedFactor="1.06" vaporized=""/>
    <tripinfo id="veh156" depart="76.00" departLane="48788485#4_1" departPos="185.43" departSpeed="0.00" departDelay="1.12" arrival="175.00" arrivalLane="-647998063#1_1" arrivalPos="65.11" arrivalSpeed="13.68" duration="99.00" routeLength="1079.10" waitingTime="0.00" waitingCount="0" stopTime="0.00" timeLoss="17.21" rerouteNo="0" devices="tripinfo_veh156" vType="passenger" speedFactor="1.00" vaporized=""/>
    <tripinfo id="veh206" depart="99.00" departLane="143207979#3_1" departPos="36.92" departSpeed="0.00" departDelay="0.12" arrival="176.00" arrivalLane="43544138#4_1" arrivalPos="45.15" arrivalSpeed="5.70" duration="77.00" routeLength="415.80" waitingTime="0.00" waitingCount="0" stopTime="0.00" timeLoss="6.11" rerouteNo="0" devices="tripinfo_veh206" vType="bicycle" speedFactor="1.06" vaporized=""/>
    <tripinfo id="veh233" depart="112.00" departLane="-40314876_1" departPos="8.71" departSpeed="0.00" departDelay="0.16" arrival="177.00" arrivalLane="647621858_0" arrivalPos="84.34" arrivalSpeed="4.74" duration="65.00" routeLength="541.17" waitingTime="0.00" waitingCount="0" stopTime="0.00" timeLoss="12.03" rerouteNo="0" devices="tripinfo_veh233" vType="passenger" speedFactor="0.97" vaporized=""/>
    <tripinfo id="veh105" depart="51.00" departLane="48736607#0_1" departPos="19.96" departSpeed="0.00" departDelay="0.60" arrival="178.00" arrivalLane="-48736601_1" arrivalPos="280.11" arrivalSpeed="11.42" duration="127.00" routeLength="1153.27" waitingTime="0.00" waitingCount="0" stopTime="0.00" timeLoss="24.33" rerouteNo="0" devices="tripinfo_veh105" vType="motorcycle" speedFactor="0.84" vaporized=""/>
    <tripinfo id="veh101" depart="49.00" departLane="354250407#1_1" departPos="53.36" departSpeed="0.00" departDelay="0.52" arrival="180.00" arrivalLane="222605087#2_1" arrivalPos="14.85" arrivalSpeed="4.91" duration="131.00" routeLength="1063.61" waitingTime="24.00" waitingCount="3" stopTime="0.00" timeLoss="41.83" rerouteNo="0" devices="tripinfo_veh101" vType="passenger" speedFactor="1.00" vaporized=""/>
    <tripinfo id="veh139" depart="67.00" departLane="-143207979#3_1" departPos="31.30" departSpeed="0.00" departDelay="0.28" arrival="183.00" arrivalLane="-48778517#0_1" arrivalPos="43.62" arrivalSpeed="7.35" duration="116.00" routeLength="1203.86" waitingTime="0.00" waitingCount="0" stopTime="0.00" timeLoss="16.32" rerouteNo="0" devices="tripinfo_veh139" vType="passenger" speedFactor="0.96" vaporized=""/>
    <tripinfo id="veh35" depart="17.00" departLane="1054663939_1" departPos="1.86" departSpeed="0.00" departDelay="0.20" arrival="184.00" arrivalLane="48778493#0_1" arrivalPos="6.51" arrivalSpeed="7.91" duration="167.00" routeLength="1653.46" waitingTime="13.00" waitingCount="1" stopTime="0.00" timeLoss="43.13" rerouteNo="0" devices="tripinfo_veh35" vType="emergency" speedFactor="1.00" vaporized=""/>
    <tripinfo id="veh57" depart="28.00" departLane="353939570#6_1" departPos="0.18" departSpeed="0.00" departDelay="0.64" arrival="184.00" arrivalLane="1136289989_1" arrivalPos="16.58" arrivalSpeed="7.50" duration="156.00" routeLength="1762.53" waitingTime="0.00" waitingCount="0" stopTime="0.00" timeLoss="19.58" rerouteNo="0" devices="tripinfo_veh57" vType="delivery" speedFactor="0.96" vaporized=""/>
    <tripinfo id="veh27" depart="13.00" departLane="-48736648#0_1" departPos="0.14" departSpeed="0.00" departDelay="0.04" arrival="187.00" arrivalLane="992542691_0" arrivalPos="24.23" arrivalSpeed="4.70" duration="174.00" routeLength="1631.35" waitingTime="16.00" waitingCount="1" stopTime="0.00" timeLoss="43.77" rerouteNo="0" devices="tripinfo_veh27" vType="passenger" speedFactor="0.97" vaporized=""/>
    <tripinfo id="veh126" depart="61.00" departLane="43546460#9_1" departPos="11.05" departSpeed="0.00" departDelay="0.52" arrival="187.00" arrivalLane="40304754#5_1" arrivalPos="153.80" arrivalSpeed="11.83" duration="126.00" routeLength="1387.55" waitingTime="0.00" waitingCount="0" stopTime="0.00" timeLoss="13.10" rerouteNo="0" devices="tripinfo_veh126" vType="passenger" speedFactor="0.91" vaporized=""/>
    <tripinfo id="veh235" depart="113.00" departLane="48778526_1" departPos="32.65" departSpeed="0.00" departDelay="0.20" arrival="188.00" arrivalLane="996486454#0_1" arrivalPos="64.29" arrivalSpeed="15.10" duration="75.00" routeLength="775.03" waitingTime="0.00" waitingCount="0" stopTime="0.00" timeLoss="22.12" rerouteNo="0" devices="tripinfo_veh235" vType="passenger" speedFactor="1.14" vaporized=""/>
    <tripinfo id="veh168" depart="83.00" departLane="-43573769#1_1" departPos="23.59" departSpeed="0.00" departDelay="2.36" arrival="189.00" arrivalLane="-43544001#11_1" arrivalPos="49.44" arrivalSpeed="12.52" duration="106.00" routeLength="1061.32" waitingTime="3.00" waitingCount="1" stopTime="0.00" timeLoss="25.69" rerouteNo="0" devices="tripinfo_veh168" vType="passenger" speedFactor="0.98" vaporized=""/>
    <tripinfo id="veh43" depart="21.00" departLane="-43544179#1_1" departPos="22.73" departSpeed="0.00" departDelay="0.36" arrival="190.00" arrivalLane="251916699#2.34_2" arrivalPos="28.37" arrivalSpeed="13.52" duration="169.00" routeLength="1766.10" waitingTime="0.00" waitingCount="0" stopTime="0.00" timeLoss="29.31" rerouteNo="0" devices="tripinfo_veh43" vType="motorcycle" speedFactor="1.00" vaporized=""/>
    <tripinfo id="veh310" depart="149.00" departLane="304695350#2_1" departPos="4.65" departSpeed="0.00" departDelay="0.20" arrival="190.00" arrivalLane="-530103975#1_1" arrivalPos="17.63" arrivalSpeed="14.19" duration="41.00" routeLength="441.52" waitingTime="0.00" waitingCount="0" stopTime="0.00" timeLoss="9.23" rerouteNo="0" devices="tripinfo_veh310" vType="passenger" speedFactor="1.08" vaporized=""/>
    <tripinfo id="veh88" depart="43.00" departLane="222608881#0_1" departPos="85.54" departSpeed="0.00" departDelay="0.76" arrival="191.00" arrivalLane="-43546115_1" arrivalPos="162.45" arrivalSpeed="12.94" duration="148.00" routeLength="1665.19" waitingTime="0.00" waitingCount="0" stopTime="0.00" timeLoss="25.17" rerouteNo="0" devices="tripinfo_veh88" vType="delivery" speedFactor="1.01" vaporized=""/>
    <tripinfo id="veh214" depart="103.00" departLane="48778501_1" departPos="4.36" departSpeed="0.00" departDelay="0.28" arrival="195.00" arrivalLane="43544184#4_1" arrivalPos="17.47" arrivalSpeed="9.99" duration="92.00" routeLength="973.62" waitingTime="0.00" waitingCount="0" stopTime="0.00" timeLoss="14.14" rerouteNo="0" devices="tripinfo_veh214" vType="passenger" speedFactor="0.94" vaporized=""/>
    <tripinfo id="veh36" depart="18.00" departLane="48778480#4_2" departPos="1.18" departSpeed="0.00" departDelay="0.72" arrival="198.00" arrivalLane="40334245#1_1" arrivalPos="44.54" arrivalSpeed="13.94" duration="180.00" routeLength="1685.84" waitingTime="30.00" waitingCount="3" stopTime="0.00" timeLoss="65.11" rerouteNo="0" devices="tripinfo_veh36" vType="passenger" speedFactor="1.09" vaporized=""/>
    <tripinfo id="veh179" depart="86.00" departLane="647762524_1" departPos="2.21" departSpeed="0.00" departDelay="0.08" arrival="199.00" arrivalLane="48797766#0_1" arrivalPos="21.21" arrivalSpeed="11.42" duration="113.00" routeLength="1002.05" waitingTime="7.00" waitingCount="1" stopTime="0.00" timeLoss="23.44" rerouteNo="0" devices="tripinfo_veh179" vType="passenger" speedFactor="0.92" vaporized=""/>
    <personinfo id="ped13" depart="65.00" type="DEFAULT_PEDTYPE" speedFactor="0.98" duration="136.00" waitingTime="0.00" timeLoss="13.99" traveltime="136.00">
        <walk depart="65.00" departPos="0.00" arrival="201.00" arrivalPos="48.01" duration="136.00" routeLength="165.38" timeLoss="13.99" maxSpeed="1.36"/>
    </personinfo>
    <tripinfo id="veh297" depart="143.00" departLane="143207982#5_1" departPos="9.90" departSpeed="0.00" departDelay="0.44" arrival="201.00" arrivalLane="-48736620#1_1" arrivalPos="60.00" arrivalSpeed="13.20" duration="58.00" routeLength="488.50" waitingTime="1.00" waitingCount="1" stopTime="0.00" timeLoss="20.46" rerouteNo="0" devices="tripinfo_veh297" vType="delivery" speedFactor="1.01" vaporized=""/>
    <tripinfo id="veh197" depart="95.00" departLane="48778502#0_1" departPos="16.48" departSpeed="0.00" departDelay="0.44" arrival="202.00" arrivalLane="48778512_1" arrivalPos="67.72" arrivalSpeed="7.68" duration="107.00" routeLength="1130.12" waitingTime="0.00" waitingCount="0" stopTime="0.00" timeLoss="22.03" rerouteNo="0" devices="tripinfo_veh197" vType="passenger" speedFactor="1.07" vaporized=""/>
    <tripinfo id="veh135" depart="65.00" departLane="383582513_0" departPos="52.58" departSpeed="0.00" departDelay="0.20" arrival="204.00" arrivalLane="-43544001#7_1" arrivalPos="45.62" arrivalSpeed="13.38" duration="139.00" routeLength="1397.63" waitingTime="8.00" waitingCount="1" stopTime="0.00" timeLoss="32.56" rerouteNo="0" devices="tripinfo_veh135" vType="passenger" speedFactor="0.98" vaporized=""/>
    <tripinfo id="veh14" depart="7.00" departLane="-994066252#1_0" departPos="16.16" departSpeed="0.00" departDelay="0.28" arrival="205.00" arrivalLane="48778500#2_1" arrivalPos="217.31" arrivalSpeed="13.52" duration="198.00" routeLength="2367.89" waitingTime="0.00" waitingCount="0" stopTime="0.00" timeLoss="20.58" rerouteNo="0" devices="tripinfo_veh14" vType="passenger" speedFactor="1.02" vaporized=""/>
    <tripinfo id="veh70" depart="34.00" departLane="383582501_0" departPos="25.59" departSpeed="0.00" departDelay="0.40" arrival="206.00" arrivalLane="40330557#4_1" arrivalPos="4.47" arrivalSpeed="11.52" duration="172.00" routeLength="1517.18" waitingTime="15.00" waitingCount="1" stopTime="0.00" timeLoss="33.78" rerouteNo="0" devices="tripinfo_veh70" vType="passenger" speedFactor="0.83" vaporized=""/>
    <tripinfo id="veh161" depart="78.00" departLane="43546109_1" departPos="154.90" departSpeed="0.00" departDelay="0.72" arrival="206.00" arrivalLane="-256555440#1_1" arrivalPos="58.59" arrivalSpeed="11.87" duration="128.00" routeLength="1198.44" waitingTime="6.00" waitingCount="1" stopTime="0.00" timeLoss="26.18" rerouteNo="0" devices="tripinfo_veh161" vType="passenger" speedFactor="0.87" vaporized=""/>
    <tripinfo id="veh23" depart="12.00" departLane="-43546064#3_1" departPos="56.23" departSpeed="0.00" departDelay="0.96" arrival="208.00" arrivalLane="1136117604_1" arrivalPos="21.30" arrivalSpeed="11.32" duration="196.00" routeLength="2085.10" waitingTime="8.00" waitingCount="1" stopTime="0.00" timeLoss="59.69" rerouteNo="0" devices="tripinfo_veh23" vType="passenger" speedFactor="1.15" vaporized=""/>
    <tripinfo id="veh184" depart="89.00" departLane="75628811#1_1" departPos="17.29" departSpeed="0.00" departDelay="0.68" arrival="209.00" arrivalLane="143207982#7_1" arrivalPos="27.48" arrivalSpeed="11.83" duration="120.00" routeLength="880.98" waitingTime="30.00" waitingCount="2" stopTime="0.00" timeLoss="49.74" rerouteNo="0" devices="tripinfo_veh184" vType="delivery" speedFactor="0.93" vaporized=""/>
    <tripinfo id="veh146" depart="71.00" departLane="1136119745_1" departPos="10.01" departSpeed="0.00" departDelay="0.92" arrival="216.00" arrivalLane="-40236203#2_1" arrivalPos="10.99" arrivalSpeed="8.21" duration="145.00" routeLength="1135.31" waitingTime="7.00" waitingCount="1" stopTime="0.00" timeLoss="44.62" rerouteNo="0" devices="tripinfo_veh146" vType="passenger" speedFactor="0.93" vaporized=""/>
    <tripinfo id="veh148" depart="72.00" departLane="48778498#1_1" departPos="9.93" departSpeed="0.00" departDelay="0.96" arrival="216.00" arrivalLane="-222605084#9_1" arrivalPos="2.21" arrivalSpeed="3.86" duration="144.00" routeLength="1111.42" waitingTime="3.00" waitingCount="1" stopTime="0.00" timeLoss="30.09" rerouteNo="0" devices="tripinfo_veh148" vType="passenger" speedFactor="0.91" vaporized=""/>
    <tripinfo id="veh172" depart="83.00" departLane="-647347140#1_1" departPos="1.36" departSpeed="0.00" departDelay="0.44" arrival="220.00" arrivalLane="-40345956#1_1" arrivalPos="78.52" arrivalSpeed="14.33" duration="137.00" routeLength="1217.33" waitingTime="30.00" waitingCount="2" stopTime="0.00" timeLoss="52.46" rerouteNo="0" devices="tripinfo_veh172" vType="motorcycle" speedFactor="1.10" vaporized=""/>
    <tripinfo id="veh190" depart="92.00" departLane="-43544001#6_1" departPos="22.67" departSpeed="0.00" departDelay="0.80" arrival="220.00" arrivalLane="1136289992_1" arrivalPos="17.60" arrivalSpeed="7.34" duration="128.00" routeLength="1121.54" waitingTime="0.00" waitingCount="0" stopTime="0.00" timeLoss="28.45" rerouteNo="0" devices="tripinfo_veh190" vType="passenger" speedFactor="0.89" vaporized=""/>
    <tripinfo id="veh140" depart="68.00" departLane="174818018#0_0" departPos="491.46" departSpeed="0.00" departDelay="0.80" arrival="221.00" arrivalLane="-48736613#2_1" arrivalPos="169.77" arrivalSpeed="11.93" duration="153.00" routeLength="1683.05" waitingTime="9.00" waitingCount="1" stopTime="0.00" timeLoss="29.14" rerouteNo="0" devices="tripinfo_veh140" vType="motorcycle" speedFactor="1.02" vaporized=""/>
    <tripinfo id="veh293" depart="141.00" departLane="1054663939_1" departPos="1.74" departSpeed="0.00" departDelay="0.36" arrival="222.00" arrivalLane="-1135855912_1" arrivalPos="95.20" arrivalSpeed="12.22" duration="81.00" routeLength="707.12" waitingTime="7.00" waitingCount="1" stopTime="0.00" timeLoss="20.92" rerouteNo="0" devices="tripinfo_veh293" vType="passenger" speedFactor="0.90" vaporized=""/>
    <tripinfo id="veh85" depart="41.00" departLane="48736610#1_1" departPos="0.81" departSpeed="0.00" departDelay="0.20" arrival="223.00" arrivalLane="222605084#0_1" arrivalPos="0.21" arrivalSpeed="5.48" duration="182.00" routeLength="1597.30" waitingTime="20.00" waitingCount="2" stopTime="0.00" timeLoss="54.45" rerouteNo="0" devices="tripinfo_veh85" vType="delivery" speedFactor="1.03" vaporized=""/>
    <tripinfo id="veh154" depart="74.00" departLane="40299264#2_1" departPos="6.82" departSpeed="0.00" departDelay="0.08" arrival="225.00" arrivalLane="-48736614#1_1" arrivalPos="221.38" arrivalSpeed="12.35" duration="151.00" routeLength="1377.92" waitingTime="8.00" waitingCount="2" stopTime="0.00" timeLoss="35.49" rerouteNo="0" devices="tripinfo_veh154" vType="passenger" speedFactor="0.90" vaporized=""/>
    <tripinfo id="veh262" depart="126.00" departLane="-48778449#2_1" departPos="46.05" departSpeed="0.00" departDelay="0.24" arrival="226.00" arrivalLane="-492965073#2_2" arrivalPos="175.38" arrivalSpeed="14.02" duration="100.00" routeLength="735.01" waitingTime="24.00" waitingCount="1" stopTime="0.00" timeLoss="45.83" rerouteNo="0" devices="tripinfo_veh262" vType="passenger" speedFactor="1.03" vaporized=""/>
    <personinfo id="ped31" depart="155.00" type="DEFAULT_PEDTYPE" speedFactor="1.12" duration="73.00" waitingTime="0.00" timeLoss="7.33" traveltime="73.00">
        <walk depart="155.00" departPos="0.00" arrival="228.00" arrivalPos="45.31" duration="73.00" routeLength="102.22" timeLoss="7.33" maxSpeed="1.56"/>
    </personinfo>
    <tripinfo id="veh3" depart="2.00" departLane="40330571#1_1" departPos="0.10" departSpeed="0.00" departDelay="0.56" arrival="228.00" arrivalLane="647621857_0" arrivalPos="41.48" arrivalSpeed="4.16" duration="226.00" routeLength="2095.41" waitingTime="15.00" waitingCount="2" stopTime="0.00" timeLoss="53.82" rerouteNo="0" devices="tripinfo_veh3" vType="passenger" speedFactor="0.94" vaporized=""/>
    <tripinfo id="veh164" depart="82.00" departLane="-43544138#1_1" departPos="16.70" departSpeed="0.00" departDelay="3.28" arrival="230.00" arrivalLane="-48778473#2_1" arrivalPos="37.09" arrivalSpeed="12.63" duration="148.00" routeLength="1863.41" waitingTime="0.00" waitingCount="0" stopTime="0.00" timeLoss="19.95" rerouteNo="0" devices="tripinfo_veh164" vType="passenger" speedFactor="1.07" vaporized=""/>
    <tripinfo id="veh209" depart="101.00" departLane="48778526_1" departPos="54.52" departSpeed="0.00" departDelay="0.68" arrival="230.00" arrivalLane="-48778508#4_1" arrivalPos="24.74" arrivalSpeed="15.52" duration="129.00" routeLength="1241.22" waitingTime="19.00" waitingCount="1" stopTime="0.00" timeLoss="46.99" rerouteNo="0" devices="tripinfo_veh209" vType="passenger" speedFactor="1.13" vaporized=""/>
    <tripinfo id="veh225" depart="108.00" departLane="859732802#0_0" departPos="3.85" departSpeed="0.00" departDelay="0.00" arrival="230.00" arrivalLane="48797773_1" arrivalPos="23.80" arrivalSpeed="12.51" duration="122.00" routeLength="984.46" waitingTime="17.00" waitingCount="2" stopTime="0.00" timeLoss="41.48" rerouteNo="0" devices="tripinfo_veh225" vType="passenger" speedFactor="0.97" vaporized=""/>