<?xml version="1.0" encoding="UTF-8"?>

<!-- generated on 2025-06-15 21:25:59 by Eclipse SUMO sumo Version 1.22.0
<sumoConfiguration xmlns:xsi="http://www.w3.org/2001/XMLSchema-instance" xsi:noNamespaceSchemaLocation="http://sumo.dlr.de/xsd/sumoConfiguration.xsd">

    <input>
        <net-file value="E:/licenta/oras-mediu/2025-06-05-11-45-23\osm.net.xml"/>
        <route-files value="E:/licenta/oras-mediu/2025-06-05-11-45-23\full.rou.xml,E:/licenta/oras-mediu/2025-06-05-11-45-23\ ped.rou.xml,E:/licenta/oras-mediu/2025-06-05-11-45-23\ truck.rou.xml"/>
        <additional-files value="E:/licenta/oras-mediu/2025-06-05-11-45-23\osm.poly.xml,E:/licenta/oras-mediu/2025-06-05-11-45-23\ vtypes.xml"/>
    </input>

    <output>
        <summary-output value="E:/licenta/oras-mediu/2025-06-05-11-45-23\summary.xml"/>
        <tripinfo-output value="evaluation_run_outputs\baseline_outputs\tripinfo_baseline_ep1.xml"/>
    </output>

    <processing>
        <ignore-route-errors value="true"/>
        <tls.actuated.jam-threshold value="30"/>
    </processing>

    <routing>
        <device.rerouting.adaptation-steps value="18"/>
        <device.rerouting.adaptation-interval value="10"/>
    </routing>

    <report>
        <verbose value="true"/>
        <duration-log.statistics value="true"/>
        <no-step-log value="true"/>
    </report>

    <gui_only>
        <gui-settings-file value="E:/licenta/oras-mediu/2025-06-05-11-45-23\osm.view.xml"/>
    </gui_only>

</sumoConfiguration>
-->

<tripinfos xmlns:xsi="http://www.w3.org/2001/XMLSchema-instance" xsi:noNamespaceSchemaLocation="http://sumo.dlr.de/xsd/tripinfo_file.xsd">
    <tripinfo id="veh50" depart="29.00" departLane="48736612#2_1" departPos="33.77" departSpeed="0.00" departDelay="0.50" arrival="78.00" arrivalLane="48736622#0_1" arrivalPos="0.20" arrivalSpeed="5.06" duration="49.00" routeLength="490.84" waitingTime="0.00" waitingCount="0" stopTime="0.00" timeLoss="10.72" rerouteNo="0" devices="tripinfo_veh50" vType="delivery" speedFactor="0.98" vaporized=""/>
    <tripinfo id="veh91" depart="52.00" departLane="-43546688#1_1" departPos="67.99" departSpeed="0.00" departDelay="0.13" arrival="99.00" arrivalLane="-48736646#0_1" arrivalPos="88.89" arrivalSpeed="10.92" duration="47.00" routeLength="450.27" waitingTime="0.00" waitingCount="0" stopTime="0.00" timeLoss="6.67" rerouteNo="0" devices="tripinfo_veh91" vType="passenger" speedFactor="0.87" vaporized=""/>
    <tripinfo id="veh73" depart="42.00" departLane="-143207982#8_1" departPos="13.30" departSpeed="0.00" departDelay="0.39" arrival="103.00" arrivalLane="-40314583#0_1" arrivalPos="169.56" arrivalSpeed="13.80" duration="61.00" routeLength="583.71" waitingTime="0.00" waitingCount="0" stopTime="0.00" timeLoss="16.47" rerouteNo="0" devices="tripinfo_veh73" vType="passenger" speedFactor="1.01" vaporized=""/>
    <tripinfo id="veh14" depart="8.00" departLane="-222605087#3_1" departPos="29.21" departSpeed="0.00" departDelay="0.02" arrival="106.00" arrivalLane="-40330557#2_1" arrivalPos="99.94" arrivalSpeed="12.62" duration="98.00" routeLength="937.36" waitingTime="0.00" waitingCount="0" stopTime="0.00" timeLoss="13.39" rerouteNo="0" devices="tripinfo_veh14" vType="emergency" speedFactor="1.00" vaporized=""/>
    <tripinfo id="veh37" depart="22.00" departLane="43544179#11_1" departPos="35.54" departSpeed="0.00" departDelay="0.91" arrival="120.00" arrivalLane="354259933#1_1" arrivalPos="32.06" arrivalSpeed="13.79" duration="98.00" routeLength="1207.50" waitingTime="0.00" waitingCount="0" stopTime="0.00" timeLoss="12.17" rerouteNo="0" devices="tripinfo_veh37" vType="passenger" speedFactor="1.04" vaporized=""/>
    <tripinfo id="veh124" depart="71.00" departLane="1054663953_0" departPos="7.50" departSpeed="0.00" departDelay="0.32" arrival="120.00" arrivalLane="48736614#1_1" arrivalPos="221.38" arrivalSpeed="11.93" duration="49.00" routeLength="400.86" waitingTime="0.00" waitingCount="0" stopTime="0.00" timeLoss="10.79" rerouteNo="0" devices="tripinfo_veh124" vType="passenger" speedFactor="0.94" vaporized=""/>
    <tripinfo id="veh74" depart="43.00" departLane="383582512#0_0" departPos="23.26" departSpeed="0.00" departDelay="0.82" arrival="125.00" arrivalLane="-48778525#1_1" arrivalPos="14.99" arrivalSpeed="10.71" duration="82.00" routeLength="718.21" waitingTime="0.00" waitingCount="0" stopTime="0.00" timeLoss="17.29" rerouteNo="0" devices="tripinfo_veh74" vType="motorcycle" speedFactor="0.94" vaporized=""/>
    <tripinfo id="veh79" depart="46.00" departLane="43544001#6_1" departPos="0.63" departSpeed="0.00" departDelay="0.97" arrival="125.00" arrivalLane="-647998060#0_1" arrivalPos="61.50" arrivalSpeed="11.50" duration="79.00" routeLength="715.23" waitingTime="1.00" waitingCount="1" stopTime="0.00" timeLoss="18.71" rerouteNo="0" devices="tripinfo_veh79" vType="passenger" speedFactor="0.91" vaporized=""/>
    <tripinfo id="veh90" depart="52.00" departLane="40306162#1_1" departPos="37.62" departSpeed="0.00" departDelay="0.70" arrival="141.00" arrivalLane="48778499#0_1" arrivalPos="44.27" arrivalSpeed="14.19" duration="89.00" routeLength="1100.68" waitingTime="0.00" waitingCount="0" stopTime="0.00" timeLoss="20.64" rerouteNo="0" devices="tripinfo_veh90" vType="passenger" speedFactor="1.25" vaporized=""/>
    <tripinfo id="veh123" depart="71.00" departLane="176279225#4_2" departPos="55.73" departSpeed="0.00" departDelay="0.89" arrival="142.00" arrivalLane="48797766#2_1" arrivalPos="182.85" arrivalSpeed="12.30" duration="71.00" routeLength="788.64" waitingTime="0.00" waitingCount="0" stopTime="0.00" timeLoss="12.72" rerouteNo="0" devices="tripinfo_veh123" vType="motorcycle" speedFactor="1.04" vaporized=""/>
    <personinfo id="ped1" depart="5.00" type="DEFAULT_PEDTYPE" speedFactor="1.20" duration="141.00" waitingTime="0.00" timeLoss="19.89" traveltime="141.00">
        <walk depart="5.00" departPos="0.00" arrival="146.00" arrivalPos="10.65" duration="141.00" routeLength="201.92" timeLoss="19.89" maxSpeed="1.67"/>
    </personinfo>
    <personinfo id="ped25" depart="125.00" type="DEFAULT_PEDTYPE" speedFactor="0.89" duration="27.00" waitingTime="0.00" timeLoss="4.13" traveltime="27.00">
        <walk depart="125.00" departPos="0.00" arrival="152.00" arrivalPos="16.30" duration="27.00" routeLength="28.41" timeLoss="4.13" maxSpeed="1.24"/>
    </personinfo>
    <tripinfo id="veh86" depart="50.00" departLane="-43546688#0_1" departPos="8.52" departSpeed="0.00" departDelay="0.98" arrival="154.00" arrivalLane="-647347140#2_1" arrivalPos="23.54" arrivalSpeed="10.97" duration="104.00" routeLength="1207.00" waitingTime="0.00" waitingCount="0" stopTime="0.00" timeLoss="21.22" rerouteNo="0" devices="tripinfo_veh86" vType="passenger" speedFactor="1.08" vaporized=""/>
    <tripinfo id="veh63" depart="36.00" departLane="-43544001#3_1" departPos="32.71" departSpeed="0.00" departDelay="0.09" arrival="155.00" arrivalLane="-383582512#1_0" arrivalPos="18.95" arrivalSpeed="5.72" duration="119.00" routeLength="1312.81" waitingTime="2.00" waitingCount="1" stopTime="0.00" timeLoss="22.64" rerouteNo="0" devices="tripinfo_veh63" vType="passenger" speedFactor="1.06" vaporized=""/>
    <tripinfo id="veh40" depart="23.00" departLane="-43544138#5_1" departPos="36.49" departSpeed="0.00" departDelay="0.20" arrival="158.00" arrivalLane="48778497_1" arrivalPos="231.08" arrivalSpeed="12.40" duration="135.00" routeLength="1426.46" waitingTime="0.00" waitingCount="0" stopTime="0.00" timeLoss="23.36" rerouteNo="0" devices="tripinfo_veh40" vType="passenger" speedFactor="0.95" vaporized=""/>
    <tripinfo id="veh53" depart="31.00" departLane="-48736646#0_1" departPos="81.66" departSpeed="0.00" departDelay="0.79" arrival="158.00" arrivalLane="-383582514_1" arrivalPos="205.28" arrivalSpeed="9.23" duration="127.00" routeLength="1446.43" waitingTime="3.00" waitingCount="1" stopTime="0.00" timeLoss="22.38" rerouteNo="0" devices="tripinfo_veh53" vType="passenger" speedFactor="1.12" vaporized=""/>
    <tripinfo id="veh69" depart="40.00" departLane="1136017144_0" departPos="12.79" departSpeed="0.00" departDelay="0.67" arrival="158.00" arrivalLane="-33913538#5_1" arrivalPos="6.17" arrivalSpeed="13.45" duration="118.00" routeLength="841.41" waitingTime="14.00" waitingCount="1" stopTime="0.00" timeLoss="31.32" rerouteNo="0" devices="tripinfo_veh69" vType="passenger" speedFactor="1.02" vaporized=""/>
    <tripinfo id="veh5" depart="3.00" departLane="470210923#3_1" departPos="24.66" departSpeed="0.00" departDelay="0.15" arrival="164.00" arrivalLane="43544001#7_1" arrivalPos="45.63" arrivalSpeed="14.32" duration="161.00" routeLength="2166.28" waitingTime="0.00" waitingCount="0" stopTime="0.00" timeLoss="16.44" rerouteNo="0" devices="tripinfo_veh5" vType="passenger" speedFactor="1.09" vaporized=""/>
    <tripinfo id="veh26" depart="15.00" departLane="647226814#1_1" departPos="22.92" departSpeed="0.00" departDelay="0.18" arrival="164.00" arrivalLane="-1205541342_1" arrivalPos="22.37" arrivalSpeed="4.39" duration="149.00" routeLength="1655.24" waitingTime="0.00" waitingCount="0" stopTime="0.00" timeLoss="19.68" rerouteNo="0" devices="tripinfo_veh26" vType="passenger" speedFactor="0.99" vaporized=""/>
    <tripinfo id="veh46" depart="27.00" departLane="43547256#1_1" departPos="102.81" departSpeed="0.00" departDelay="0.78" arrival="166.00" arrivalLane="-E12.34_1" arrivalPos="55.77" arrivalSpeed="9.28" duration="139.00" routeLength="1582.11" waitingTime="6.00" waitingCount="1" stopTime="0.00" timeLoss="29.08" rerouteNo="0" devices="tripinfo_veh46" vType="passenger" speedFactor="1.05" vaporized=""/>
    <tripinfo id="veh61" depart="35.00" departLane="-33909936#0_1" departPos="5.56" departSpeed="0.00" departDelay="0.23" arrival="166.00" arrivalLane="-859734514#0_0" arrivalPos="34.75" arrivalSpeed="5.14" duration="131.00" routeLength="1204.95" waitingTime="0.00" waitingCount="0" stopTime="0.00" timeLoss="21.13" rerouteNo="0" devices="tripinfo_veh61" vType="delivery" speedFactor="0.96" vaporized=""/>
    <tripinfo id="veh52" depart="30.00" departLane="-40266910_1" departPos="131.96" departSpeed="0.00" departDelay="0.36" arrival="168.00" arrivalLane="-354259933#3_1" arrivalPos="60.32" arrivalSpeed="12.90" duration="138.00" routeLength="1200.52" waitingTime="30.00" waitingCount="2" stopTime="0.00" timeLoss="49.05" rerouteNo="0" devices="tripinfo_veh52" vType="passenger" speedFactor="1.00" vaporized=""/>
    <personinfo id="ped8" depart="40.00" type="DEFAULT_PEDTYPE" speedFactor="1.01" duration="129.00" waitingTime="0.00" timeLoss="12.21" traveltime="129.00">
        <walk depart="40.00" departPos="0.00" arrival="169.00" arrivalPos="4.26" duration="129.00" routeLength="163.53" timeLoss="12.21" maxSpeed="1.40"/>
    </personinfo>
    <tripinfo id="veh115" depart="66.00" departLane="-48797767#1_1" departPos="54.42" departSpeed="0.00" departDelay="0.45" arrival="169.00" arrivalLane="-250295383#3_1" arrivalPos="11.99" arrivalSpeed="10.62" duration="103.00" routeLength="908.75" waitingTime="5.00" waitingCount="1" stopTime="0.00" timeLoss="34.76" rerouteNo="0" devices="tripinfo_veh115" vType="passenger" speedFactor="1.06" vaporized=""/>
    <tripinfo id="veh149" depart="86.00" departLane="-43544138#6_1" departPos="34.86" departSpeed="0.00" departDelay="1.07" arrival="169.00" arrivalLane="-43573769#1_1" arrivalPos="54.95" arrivalSpeed="13.34" duration="83.00" routeLength="919.57" waitingTime="0.00" waitingCount="0" stopTime="0.00" timeLoss="15.15" rerouteNo="0" devices="tripinfo_veh149" vType="passenger" speedFactor="1.03" vaporized=""/>
    <tripinfo id="veh85" depart="49.00" departLane="E17_2" departPos="24.96" departSpeed="0.00" departDelay="0.55" arrival="176.00" arrivalLane="-992542694_0" arrivalPos="55.17" arrivalSpeed="4.29" duration="127.00" routeLength="1213.57" waitingTime="0.00" waitingCount="0" stopTime="0.00" timeLoss="17.54" rerouteNo="0" devices="tripinfo_veh85" vType="passenger" speedFactor="0.89" vaporized=""/>
    <tripinfo id="veh221" depart="126.00" departLane="43573547#7_1" departPos="37.35" departSpeed="0.00" departDelay="0.03" arrival="178.00" arrivalLane="996489799#0_0" arrivalPos="0.20" arrivalSpeed="5.27" duration="52.00" routeLength="492.64" waitingTime="0.00" waitingCount="0" stopTime="0.00" timeLoss="13.39" rerouteNo="0" devices="tripinfo_veh221" vType="delivery" speedFactor="0.99" vaporized=""/>
    <tripinfo id="veh35" depart="20.00" departLane="859734514#0_0" departPos="2.40" departSpeed="0.00" departDelay="0.05" arrival="180.00" arrivalLane="48778497_1" arrivalPos="231.08" arrivalSpeed="14.12" duration="160.00" routeLength="1058.05" waitingTime="33.00" waitingCount="1" stopTime="0.00" timeLoss="67.89" rerouteNo="0" devices="tripinfo_veh35" vType="passenger" speedFactor="1.03" vaporized=""/>
    <tripinfo id="veh199" depart="114.00" departLane="43544179#6_1" departPos="13.65" departSpeed="0.00" departDelay="0.57" arrival="183.00" arrivalLane="258551283#1_1" arrivalPos="55.98" arrivalSpeed="12.83" duration="69.00" routeLength="781.81" waitingTime="0.00" waitingCount="0" stopTime="0.00" timeLoss="11.39" rerouteNo="0" devices="tripinfo_veh199" vType="emergency" speedFactor="1.00" vaporized=""/>
    <tripinfo id="veh120" depart="69.00" departLane="-40265774#1_1" departPos="33.56" departSpeed="0.00" departDelay="0.60" arrival="185.00" arrivalLane="-43546460#11_1" arrivalPos="10.09" arrivalSpeed="7.99" duration="116.00" routeLength="1337.29" waitingTime="6.00" waitingCount="1" stopTime="0.00" timeLoss="33.52" rerouteNo="0" devices="tripinfo_veh120" vType="passenger" speedFactor="1.21" vaporized=""/>
    <tripinfo id="veh152" depart="87.00" departLane="-40236144#0_1" departPos="63.10" departSpeed="0.00" departDelay="0.36" arrival="187.00" arrivalLane="-48778498#1_1" arrivalPos="23.69" arrivalSpeed="11.49" duration="100.00" routeLength="943.76" waitingTime="4.00" waitingCount="1" stopTime="0.00" timeLoss="20.98" rerouteNo="0" devices="tripinfo_veh152" vType="passenger" speedFactor="0.91" vaporized=""/>
    <tripinfo id="veh36" depart="21.00" departLane="354259933#2_1" departPos="35.90" departSpeed="0.00" departDelay="0.48" arrival="189.00" arrivalLane="1136289987_1" arrivalPos="68.55" arrivalSpeed="8.29" duration="168.00" routeLength="1386.87" waitingTime="39.00" waitingCount="1" stopTime="0.00" timeLoss="65.70" rerouteNo="0" devices="tripinfo_veh36" vType="passenger" speedFactor="1.07" vaporized=""/>
    <tripinfo id="veh23" depart="14.00" departLane="984521611#0_0" departPos="3.47" departSpeed="0.00" departDelay="0.89" arrival="191.00" arrivalLane="647610982#1_1" arrivalPos="73.58" arrivalSpeed="12.16" duration="177.00" routeLength="1211.80" waitingTime="53.00" waitingCount="2" stopTime="0.00" timeLoss="73.03" rerouteNo="0" devices="tripinfo_veh23" vType="passenger" speedFactor="0.89" vaporized=""/>
    <tripinfo id="veh42" depart="24.00" departLane="383582507_0" departPos="59.27" departSpeed="0.00" departDelay="0.06" arrival="194.00" arrivalLane="92198451#2_1" arrivalPos="98.88" arrivalSpeed="14.48" duration="170.00" routeLength="2202.33" waitingTime="0.00" waitingCount="0" stopTime="0.00" timeLoss="13.36" rerouteNo="0" devices="tripinfo_veh42" vType="passenger" speedFactor="1.06" vaporized=""/>
    <tripinfo id="veh71" depart="41.00" departLane="222605087#0_1" departPos="5.77" departSpeed="0.00" departDelay="0.53" arrival="194.00" arrivalLane="-222609004#1_1" arrivalPos="58.62" arrivalSpeed="12.72" duration="153.00" routeLength="755.67" waitingTime="41.00" waitingCount="1" stopTime="0.00" timeLoss="63.96" rerouteNo="0" devices="tripinfo_veh71" vType="passenger" speedFactor="0.98" vaporized=""/>
    <tripinfo id="veh234" depart="134.00" departLane="48736624#0_1" departPos="0.77" departSpeed="0.00" departDelay="0.62" arrival="195.00" arrivalLane="48736657#1_1" arrivalPos="19.18" arrivalSpeed="9.97" duration="61.00" routeLength="564.17" waitingTime="2.00" waitingCount="1" stopTime="0.00" timeLoss="19.87" rerouteNo="0" devices="tripinfo_veh234" vType="passenger" speedFactor="1.05" vaporized=""/>
    <tripinfo id="veh75" depart="43.00" departLane="1250915720#5_1" departPos="0.06" departSpeed="0.00" departDelay="0.25" arrival="197.00" arrivalLane="-40236220#1_1" arrivalPos="30.08" arrivalSpeed="10.53" duration="154.00" routeLength="1137.50" waitingTime="11.00" waitingCount="2" stopTime="0.00" timeLoss="41.12" rerouteNo="0" devices="tripinfo_veh75" vType="passenger" speedFactor="0.83" vaporized=""/>
    <tripinfo id="veh113" depart="65.00" departLane="-48778473#0_1" departPos="10.07" departSpeed="0.00" departDelay="0.59" arrival="197.00" arrivalLane="43573573#0_1" arrivalPos="20.39" arrivalSpeed="10.71" duration="132.00" routeLength="1509.02" waitingTime="0.00" waitingCount="0" stopTime="0.00" timeLoss="19.76" rerouteNo="0" devices="tripinfo_veh113" vType="emergency" speedFactor="1.00" vaporized=""/>
    <tripinfo id="veh245" depart="140.00" departLane="-40334245#1_1" departPos="32.57" departSpeed="0.00" departDelay="0.35" arrival="197.00" arrivalLane="-40334244#3_1" arrivalPos="176.10" arrivalSpeed="15.11" duration="57.00" routeLength="419.15" waitingTime="12.00" waitingCount="1" stopTime="0.00" timeLoss="27.27" rerouteNo="0" devices="tripinfo_veh245" vType="passenger" speedFactor="1.10" vaporized=""/>
    <tripinfo id="veh129" depart="74.00" departLane="-250295383#6_1" departPos="25.41" departSpeed="0.00" departDelay="0.47" arrival="198.00" arrivalLane="994066252#1_0" arrivalPos="52.62" arrivalSpeed="5.04" duration="124.00" routeLength="1174.36" waitingTime="0.00" waitingCount="0" stopTime="0.00" timeLoss="28.85" rerouteNo="0" devices="tripinfo_veh129" vType="motorcycle" speedFactor="1.01" vaporized=""/>
    <tripinfo id="veh159" depart="91.00" departLane="-48778502#1_1" departPos="163.89" departSpeed="0.00" departDelay="0.37" arrival="201.00" arrivalLane="48778527_1" arrivalPos="56.14" arrivalSpeed="13.56" duration="110.00" routeLength="1204.49" waitingTime="0.00" waitingCount="0" stopTime="0.00" timeLoss="18.90" rerouteNo="0" devices="tripinfo_veh159" vType="passenger" speedFactor="1.00" vaporized=""/>
    <tripinfo id="veh66" depart="39.00" departLane="-43573573#0_1" departPos="4.53" departSpeed="0.00" departDelay="1.38" arrival="203.00" arrivalLane="222605084#6_0" arrivalPos="0.20" arrivalSpeed="4.90" duration="164.00" routeLength="1365.27" waitingTime="2.00" waitingCount="1" stopTime="0.00" timeLoss="27.20" rerouteNo="0" devices="tripinfo_veh66" vType="passenger" speedFactor="0.92" vaporized=""/>
    <tripinfo id="veh194" depart="111.00" departLane="43544179#9_1" departPos="247.57" departSpeed="0.00" departDelay="0.42" arrival="204.00" arrivalLane="-43573547#5_1" arrivalPos="56.54" arrivalSpeed="13.75" duration="93.00" routeLength="1192.10" waitingTime="0.00" waitingCount="0" stopTime="0.00" timeLoss="14.98" rerouteNo="0" devices="tripinfo_veh194" vType="motorcycle" speedFactor="1.14" vaporized=""/>
    <tripinfo id="veh39" depart="23.00" departLane="33913538#3_1" departPos="2.74" departSpeed="0.00" departDelay="0.77" arrival="206.00" arrivalLane="256555440#0_1" arrivalPos="59.99" arrivalSpeed="14.46" duration="183.00" routeLength="1821.61" waitingTime="30.00" waitingCount="2" stopTime="0.00" timeLoss="60.14" rerouteNo="0" devices="tripinfo_veh39" vType="passenger" speedFactor="1.09" vaporized=""/>
    <tripinfo id="veh139" depart="80.00" departLane="-48736665_1" departPos="9.99" departSpeed="0.00" departDelay="0.77" arrival="206.00" arrivalLane="-996984235_0" arrivalPos="15.63" arrivalSpeed="4.34" duration="126.00" routeLength="1215.20" waitingTime="3.00" waitingCount="2" stopTime="0.00" timeLoss="30.55" rerouteNo="0" devices="tripinfo_veh139" vType="passenger" speedFactor="0.98" vaporized=""/>
    <tripinfo id="veh230" depart="132.00" departLane="67736383_1" departPos="7.26" departSpeed="0.00" departDelay="0.90" arrival="206.00" arrivalLane="43546088_1" arrivalPos="225.00" arrivalSpeed="11.53" duration="74.00" routeLength="680.92" waitingTime="0.00" waitingCount="0" stopTime="0.00" timeLoss="14.94" rerouteNo="0" devices="tripinfo_veh230" vType="passenger" speedFactor="0.87" vaporized=""/>
    <personinfo id="ped32" depart="160.00" type="DEFAULT_PEDTYPE" speedFactor="1.20" duration="47.00" waitingTime="0.00" timeLoss="5.67" traveltime="47.00">
        <walk depart="160.00" departPos="0.00" arrival="207.00" arrivalPos="30.16" duration="47.00" routeLength="68.85" timeLoss="5.67" maxSpeed="1.67"/>
    </personinfo>
    <tripinfo id="veh122" depart="70.00" departLane="-176279225#0_2" departPos="15.56" departSpeed="0.00" departDelay="0.46" arrival="207.00" arrivalLane="-1251292611_1" arrivalPos="3.48" arrivalSpeed="4.98" duration="137.00" routeLength="1204.75" waitingTime="2.00" waitingCount="1" stopTime="0.00" timeLoss="23.01" rerouteNo="0" devices="tripinfo_veh122" vType="passenger" speedFactor="0.97" vaporized=""/>
    <tripinfo id="veh253" depart="145.00" departLane="-48778525#0_1" departPos="33.60" departSpeed="0.00" departDelay="0.79" arrival="207.00" arrivalLane="-43544046_1" arrivalPos="104.31" arrivalSpeed="11.79" duration="62.00" routeLength="527.45" waitingTime="4.00" waitingCount="1" stopTime="0.00" timeLoss="19.37" rerouteNo="0" devices="tripinfo_veh253" vType="motorcycle" speedFactor="0.98" vaporized=""/>
    <tripinfo id="veh17" depart="10.00" departLane="-43573769#0_1" departPos="24.33" departSpeed="0.00" departDelay="0.31" arrival="209.00" arrivalLane="43546570#0_1" arrivalPos="43.31" arrivalSpeed="11.19" duration="199.00" routeLength="1850.71" waitingTime="17.00" waitingCount="1" stopTime="0.00" timeLoss="44.04" rerouteNo="0" devices="tripinfo_veh17" vType="passenger" speedFactor="0.89" vaporized=""/>
    <personinfo id="ped23" depart="115.00" type="DEFAULT_PEDTYPE" speedFactor="1.17" duration="95.00" waitingTime="0.00" timeLoss="10.02" traveltime="95.00">
        <walk depart="115.00" departPos="0.00" arrival="210.00" arrivalPos="22.07" duration="95.00" routeLength="137.80" timeLoss="10.02" maxSpeed="1.62"/>
    </personinfo>
    <tripinfo id="veh7" depart="4.00" departLane="-40236203#3_1" departPos="58.73" departSpeed="0.00" departDelay="0.01" arrival="213.00" arrivalLane="-647998063#0_1" arrivalPos="301.30" arrivalSpeed="15.53" duration="209.00" routeLength="2778.81" waitingTime="0.00" waitingCount="0" stopTime="0.00" timeLoss="27.12" rerouteNo="0" devices="tripinfo_veh7" vType="passenger" speedFactor="1.12" vaporized=""/>
    <tripinfo id="veh87" depart="50.00" departLane="-40330575#1_1" departPos="0.86" departSpeed="0.00" departDelay="0.41" arrival="214.00" arrivalLane="-43547017#1_1" arrivalPos="26.92" arrivalSpeed="14.36" duration="164.00" routeLength="1659.40" waitingTime="24.00" waitingCount="1" stopTime="0.00" timeLoss="45.54" rerouteNo="0" devices="tripinfo_veh87" vType="passenger" speedFactor="1.03" vaporized=""/>
    <tripinfo id="veh30" depart="18.00" departLane="-994066252#0_0" departPos="0.85" departSpeed="0.00" departDelay="0.90" arrival="216.00" arrivalLane="-43544138#4_1" arrivalPos="45.15" arrivalSpeed="15.26" duration="198.00" routeLength="2518.59" waitingTime="0.00" waitingCount="0" stopTime="0.00" timeLoss="29.18" rerouteNo="0" devices="tripinfo_veh30" vType="passenger" speedFactor="1.10" vaporized=""/>
    <tripinfo id="veh220" depart="126.00" departLane="43546092_1" departPos="83.34" departSpeed="0.00" departDelay="0.60" arrival="216.00" arrivalLane="-43546064#2_1" arrivalPos="102.85" arrivalSpeed="11.97" duration="90.00" routeLength="932.74" waitingTime="0.00" waitingCount="0" stopTime="0.00" timeLoss="17.05" rerouteNo="0" devices="tripinfo_veh220" vType="passenger" speedFactor="0.95" vaporized=""/>
    <tripinfo id="veh38" depart="22.00" departLane="143207979#2_1" departPos="14.17" departSpeed="0.00" departDelay="0.34" arrival="217.00" arrivalLane="-43546648#1_1" arrivalPos="105.30" arrivalSpeed="13.87" duration="195.00" routeLength="2223.31" waitingTime="0.00" waitingCount="0" stopTime="0.00" timeLoss="30.18" rerouteNo="0" devices="tripinfo_veh38" vType="emergency" speedFactor="1.00" vaporized=""/>
    <tripinfo id="veh240" depart="137.00" departLane="-647762524_1" departPos="28.41" departSpeed="0.00" departDelay="0.20" arrival="217.00" arrivalLane="492965073#7_1" arrivalPos="34.78" arrivalSpeed="12.36" duration="80.00" routeLength="737.24" waitingTime="0.00" waitingCount="0" stopTime="0.00" timeLoss="18.52" rerouteNo="0" devices="tripinfo_veh240" vType="motorcycle" speedFactor="0.94" vaporized=""/>
    <tripinfo id="veh189" depart="108.00" departLane="-43546449#0_1" departPos="18.86" departSpeed="0.00" departDelay="0.27" arrival="218.00" arrivalLane="1136301814#0_1" arrivalPos="40.78" arrivalSpeed="12.71" duration="110.00" routeLength="444.71" waitingTime="54.00" waitingCount="2" stopTime="0.00" timeLoss="72.25" rerouteNo="0" devices="tripinfo_veh189" vType="delivery" speedFactor="0.93" vaporized=""/>
    <tripinfo id="veh60" depart="35.00" departLane="40236153#1_1" departPos="33.79" departSpeed="0.00" departDelay="0.80" arrival="220.00" arrivalLane="-43546460#7_1" arrivalPos="93.76" arrivalSpeed="13.35" duration="185.00" routeLength="2080.30" waitingTime="0.00" waitingCount="0" stopTime="0.00" timeLoss="32.02" rerouteNo="0" devices="tripinfo_veh60" vType="passenger" speedFactor="1.02" vaporized=""/>
    <tripinfo id="veh64" depart="37.00" departLane="40334245#1_1" departPos="20.30" departSpeed="0.00" departDelay="0.52" arrival="220.00" arrivalLane="48736646#0_1" arrivalPos="88.26" arrivalSpeed="15.35" duration="183.00" routeLength="2054.44" waitingTime="16.00" waitingCount="1" stopTime="0.00" timeLoss="48.35" rerouteNo="0" devices="tripinfo_veh64" vType="passenger" speedFactor="1.12" vaporized=""/>
    <tripinfo id="veh203" depart="120.00" departLane="40236144#3_1" departPos="21.77" departSpeed="0.00" departDelay="4.29" arrival="224.00" arrivalLane="-43573547#3_1" arrivalPos="51.38" arrivalSpeed="11.61" duration="104.00" routeLength="1013.41" waitingTime="0.00" waitingCount="0" stopTime="0.00" timeLoss="13.82" rerouteNo="0" devices="tripinfo_veh203" vType="passenger" speedFactor="0.85" vaporized=""/>
    <tripinfo id="veh257" depart="147.00" departLane="43573573#0_1" departPos="15.03" departSpeed="0.00" departDelay="0.51" arrival="224.00" arrivalLane="647383048_1" arrivalPos="105.03" arrivalSpeed="14.51" duration="77.00" routeLength="803.18" waitingTime="0.00" waitingCount="0" stopTime="0.00" timeLoss="18.38" rerouteNo="0" devices="tripinfo_veh257" vType="passenger" speedFactor="1.05" vaporized=""/>
    <tripinfo id="veh6" depart="4.00" departLane="-250295384_1" departPos="67.71" departSpeed="0.00" departDelay="0.58" arrival="225.00" arrivalLane="-43544001#11_1" arrivalPos="49.44" arrivalSpeed="12.59" duration="221.00" routeLength="2343.42" waitingTime="0.00" waitingCount="0" stopTime="0.00" timeLoss="31.75" rerouteNo="0" devices="tripinfo_veh6" vType="passenger" speedFactor="0.92" vaporized=""/>
    <tripinfo id="veh126" depart="72.00" departLane="-43546688#2_1" departPos="32.33" departSpeed="0.00" departDelay="0.18" arrival="226.00" arrivalLane="-48797770_1" arrivalPos="20.27" arrivalSpeed="11.52" duration="154.00" routeLength="1146.93" waitingTime="26.00" waitingCount="2" stopTime="0.00" timeLoss="57.91" rerouteNo="0" devices="tripinfo_veh126" vType="passenger" speedFactor="0.92" vaporized=""/>
    <tripinfo id="veh144" depart="83.00" departLane="-353939570#7_1" departPos="4.52" departSpeed="0.00" departDelay="0.92" arrival="228.00" arrivalLane="40266620_1" arrivalPos="32.51" arrivalSpeed="11.65" duration="145.00" routeLength="1169.80" waitingTime="11.00" waitingCount="2" stopTime="0.00" timeLoss="57.71" rerouteNo="0" devices="tripinfo_veh144" vType="motorcycle" speedFactor="1.02" vaporized=""/>
    <tripinfo id="veh89" depart="51.00" departLane="-1135856746#1_1" departPos="101.05" departSpeed="0.00" departDelay="0.27" arrival="229.00" arrivalLane="40236220#0_1" arrivalPos="34.75" arrivalSpeed="11.84" duration="178.00" routeLength="1544.27" waitingTime="26.00" waitingCount="1" stopTime="0.00" timeLoss="66.94" rerouteNo="0" devices="tripinfo_veh89" vType="delivery" speedFactor="1.03" vaporized=""/>
    <tripinfo id="veh67" depart="39.00" departLane="-48736658_1" departPos="54.71" departSpeed="0.00" departDelay="0.81" arrival="231.00" arrivalLane="-649025399_0" arrivalPos="31.36" arrivalSpeed="14.47" duration="192.00" routeLength="2288.53" waitingTime="20.00" waitingCount="1" stopTime="0.00" timeLoss="38.22" rerouteNo="0" devices="tripinfo_veh67" vType="passenger" speedFactor="1.09" vaporized=""/>
    <tripinfo id="veh206" depart="118.00" departLane="40265775#0_1" departPos="44.40" departSpeed="0.00" departDelay="0.58" arrival="232.00" arrivalLane="-945793485#0_1" arrivalPos="25.01" arrivalSpeed="12.91" duration="114.00" routeLength="1149.89" waitingTime="0.00" waitingCount="0" stopTime="0.00" timeLoss="23.69" rerouteNo="0" devices="tripinfo_veh206" vType="motorcycle" speedFactor="1.04" vaporized=""/>
    <tripinfo id="veh293" depart="168.00" departLane="48778498#2_1" departPos="36.80" departSpeed="0.00" departDelay="0.99" arrival="233.00" arrivalLane="984505045_0" arrivalPos="60.60" arrivalSpeed="4.79" duration="65.00" routeLength="619.67" waitingTime="0.00" waitingCount="0" stopTime="0.00" timeLoss="11.62" rerouteNo="0" devices="tripinfo_veh293" vType="passenger" speedFactor="1.02" vaporized=""/>
    <tripinfo id="veh224" depart="128.00" departLane="-48778515_1" departPos="18.79" departSpeed="0.00" departDelay="0.32" arrival="236.00" arrivalLane="647998063#3_1" arrivalPos="114.77" arrivalSpeed="10.14" duration="108.00" routeLength="1102.95" waitingTime="0.00" waitingCount="0" stopTime="0.00" timeLoss="18.12" rerouteNo="0" devices="tripinfo_veh224" vType="motorcycle" speedFactor="0.93" vaporized=""/>