<?xml version="1.0" encoding="UTF-8"?>

<!-- generated on 2025-06-15 22:00:46 by Eclipse SUMO sumo Version 1.22.0
<sumoConfiguration xmlns:xsi="http://www.w3.org/2001/XMLSchema-instance" xsi:noNamespaceSchemaLocation="http://sumo.dlr.de/xsd/sumoConfiguration.xsd">

    <input>
        <net-file value="E:/licenta/oras-mediu/2025-06-05-11-45-23\osm.net.xml"/>
        <route-files value="E:/licenta/oras-mediu/2025-06-05-11-45-23\full.rou.xml,E:/licenta/oras-mediu/2025-06-05-11-45-23\ ped.rou.xml,E:/licenta/oras-mediu/2025-06-05-11-45-23\ truck.rou.xml"/>
        <additional-files value="E:/licenta/oras-mediu/2025-06-05-11-45-23\osm.poly.xml,E:/licenta/oras-mediu/2025-06-05-11-45-23\ vtypes.xml"/>
    </input>

    <output>
        <summary-output value="E:/licenta/oras-mediu/2025-06-05-11-45-23\summary.xml"/>
        <tripinfo-output value="evaluation_run_outputs\baseline_outputs\tripinfo_baseline_ep10.xml"/>
    </output>

    <processing>
        <ignore-route-errors value="true"/>
        <tls.actuated.jam-threshold value="30"/>
    </processing>

    <routing>
        <device.rerouting.adaptation-steps value="18"/>
        <device.rerouting.adaptation-interval value="10"/>
    </routing>

    <report>
        <verbose value="true"/>
        <duration-log.statistics value="true"/>
        <no-step-log value="true"/>
    </report>

    <gui_only>
        <gui-settings-file value="E:/licenta/oras-mediu/2025-06-05-11-45-23\osm.view.xml"/>
    </gui_only>

</sumoConfiguration>
-->

<tripinfos xmlns:xsi="http://www.w3.org/2001/XMLSchema-instance" xsi:noNamespaceSchemaLocation="http://sumo.dlr.de/xsd/tripinfo_file.xsd">
    <personinfo id="ped0" depart="0.00" type="DEFAULT_PEDTYPE" speedFactor="1.03" duration="32.00" waitingTime="0.00" timeLoss="3.39" traveltime="32.00">
        <walk depart="0.00" departPos="0.00" arrival="32.00" arrivalPos="29.31" duration="32.00" routeLength="40.95" timeLoss="3.39" maxSpeed="1.43"/>
    </personinfo>
    <tripinfo id="veh1" depart="1.00" departLane="-996489799#1_0" departPos="2.40" departSpeed="0.00" departDelay="0.33" arrival="58.00" arrivalLane="40265778#0_1" arrivalPos="145.00" arrivalSpeed="14.43" duration="57.00" routeLength="619.57" waitingTime="0.00" waitingCount="0" stopTime="0.00" timeLoss="7.96" rerouteNo="0" devices="tripinfo_veh1" vType="passenger" speedFactor="1.08" vaporized=""/>
    <tripinfo id="veh76" depart="51.00" departLane="-859732801#1_1" departPos="10.59" departSpeed="0.00" departDelay="0.08" arrival="58.00" arrivalLane="859732802#0_0" arrivalPos="5.59" arrivalSpeed="4.36" duration="7.00" routeLength="29.08" waitingTime="0.00" waitingCount="0" stopTime="0.00" timeLoss="2.70" rerouteNo="0" devices="tripinfo_veh76" vType="emergency" speedFactor="1.00" vaporized=""/>
    <tripinfo id="veh17" depart="12.00" departLane="-530103972_1" departPos="7.92" departSpeed="0.00" departDelay="0.61" arrival="66.00" arrivalLane="1135854210_1" arrivalPos="13.11" arrivalSpeed="4.63" duration="54.00" routeLength="220.77" waitingTime="0.00" waitingCount="0" stopTime="0.00" timeLoss="13.46" rerouteNo="0" devices="tripinfo_veh17" vType="passenger" speedFactor="0.87" vaporized=""/>
    <tripinfo id="veh40" depart="27.00" departLane="43573769#1_1" departPos="8.44" departSpeed="0.00" departDelay="0.20" arrival="99.00" arrivalLane="-43546935#3_1" arrivalPos="13.61" arrivalSpeed="10.91" duration="72.00" routeLength="786.61" waitingTime="0.00" waitingCount="0" stopTime="0.00" timeLoss="12.54" rerouteNo="0" devices="tripinfo_veh40" vType="motorcycle" speedFactor="1.00" vaporized=""/>
    <tripinfo id="veh63" depart="43.00" departLane="-143207979#1_1" departPos="34.72" departSpeed="0.00" departDelay="0.79" arrival="104.00" arrivalLane="-289113778#0_1" arrivalPos="105.65" arrivalSpeed="12.29" duration="61.00" routeLength="619.97" waitingTime="0.00" waitingCount="0" stopTime="0.00" timeLoss="10.85" rerouteNo="0" devices="tripinfo_veh63" vType="passenger" speedFactor="0.98" vaporized=""/>
    <tripinfo id="veh59" depart="40.00" departLane="-492965073#5_2" departPos="35.62" departSpeed="0.00" departDelay="0.47" arrival="110.00" arrivalLane="48778449#1_1" arrivalPos="70.68" arrivalSpeed="14.44" duration="70.00" routeLength="488.99" waitingTime="15.00" waitingCount="1" stopTime="0.00" timeLoss="33.75" rerouteNo="0" devices="tripinfo_veh59" vType="passenger" speedFactor="1.09" vaporized=""/>
    <tripinfo id="veh101" depart="68.00" departLane="-647347140#2_1" departPos="11.13" departSpeed="0.00" departDelay="0.33" arrival="112.00" arrivalLane="945794109_1" arrivalPos="21.82" arrivalSpeed="8.47" duration="44.00" routeLength="411.73" waitingTime="0.00" waitingCount="0" stopTime="0.00" timeLoss="13.13" rerouteNo="0" devices="tripinfo_veh101" vType="passenger" speedFactor="1.12" vaporized=""/>
    <tripinfo id="veh35" depart="24.00" departLane="-1136289992_1" departPos="17.10" departSpeed="0.00" departDelay="0.55" arrival="114.00" arrivalLane="-647226814#1_1" arrivalPos="38.44" arrivalSpeed="12.24" duration="90.00" routeLength="869.05" waitingTime="0.00" waitingCount="0" stopTime="0.00" timeLoss="18.75" rerouteNo="0" devices="tripinfo_veh35" vType="passenger" speedFactor="0.95" vaporized=""/>
    <tripinfo id="veh53" depart="36.00" departLane="-40236203#2_1" departPos="2.42" departSpeed="0.00" departDelay="0.49" arrival="117.00" arrivalLane="-945793486#1_0" arrivalPos="53.92" arrivalSpeed="4.38" duration="81.00" routeLength="713.22" waitingTime="0.00" waitingCount="0" stopTime="0.00" timeLoss="17.17" rerouteNo="0" devices="tripinfo_veh53" vType="delivery" speedFactor="0.96" vaporized=""/>
    <tripinfo id="veh8" depart="6.00" departLane="40345930_1" departPos="5.83" departSpeed="0.00" departDelay="0.64" arrival="129.00" arrivalLane="33909936#2_1" arrivalPos="59.66" arrivalSpeed="12.24" duration="123.00" routeLength="809.88" waitingTime="18.00" waitingCount="1" stopTime="0.00" timeLoss="56.45" rerouteNo="0" devices="tripinfo_veh8" vType="passenger" speedFactor="0.90" vaporized=""/>
    <tripinfo id="veh79" depart="53.00" departLane="43544197#8_1" departPos="0.68" departSpeed="0.00" departDelay="0.07" arrival="133.00" arrivalLane="43546109_1" arrivalPos="180.80" arrivalSpeed="14.64" duration="80.00" routeLength="886.37" waitingTime="0.00" waitingCount="0" stopTime="0.00" timeLoss="17.23" rerouteNo="0" devices="tripinfo_veh79" vType="passenger" speedFactor="1.06" vaporized=""/>
    <tripinfo id="veh158" depart="106.00" departLane="48778520_1" departPos="38.49" departSpeed="0.00" departDelay="0.14" arrival="135.00" arrivalLane="43544184#2_1" arrivalPos="44.28" arrivalSpeed="15.13" duration="29.00" routeLength="271.45" waitingTime="0.00" waitingCount="0" stopTime="0.00" timeLoss="10.65" rerouteNo="0" devices="tripinfo_veh158" vType="passenger" speedFactor="1.15" vaporized=""/>
    <tripinfo id="veh2" depart="2.00" departLane="40305706#2_1" departPos="31.05" departSpeed="0.00" departDelay="0.66" arrival="140.00" arrivalLane="48778453_1" arrivalPos="29.18" arrivalSpeed="11.71" duration="138.00" routeLength="898.93" waitingTime="0.00" waitingCount="0" stopTime="0.00" timeLoss="72.96" rerouteNo="0" devices="tripinfo_veh2" vType="passenger" speedFactor="1.08" vaporized=""/>
    <tripinfo id="veh152" depart="102.00" departLane="-43544179#5_1" departPos="24.30" departSpeed="0.00" departDelay="0.16" arrival="144.00" arrivalLane="43546064#1_1" arrivalPos="98.06" arrivalSpeed="12.69" duration="42.00" routeLength="452.23" waitingTime="0.00" waitingCount="0" stopTime="0.00" timeLoss="7.36" rerouteNo="0" devices="tripinfo_veh152" vType="delivery" speedFactor="0.99" vaporized=""/>
    <tripinfo id="veh33" depart="23.00" departLane="-48736619_1" departPos="60.15" departSpeed="0.00" departDelay="0.89" arrival="146.00" arrivalLane="48797767#1_1" arrivalPos="62.09" arrivalSpeed="13.15" duration="123.00" routeLength="1130.46" waitingTime="12.00" waitingCount="2" stopTime="0.00" timeLoss="36.74" rerouteNo="0" devices="tripinfo_veh33" vType="emergency" speedFactor="1.00" vaporized=""/>
    <tripinfo id="veh50" depart="34.00" departLane="40236144#3_1" departPos="49.72" departSpeed="0.00" departDelay="0.50" arrival="148.00" arrivalLane="-223883703_0" arrivalPos="83.93" arrivalSpeed="5.01" duration="114.00" routeLength="881.23" waitingTime="3.00" waitingCount="2" stopTime="0.00" timeLoss="31.68" rerouteNo="0" devices="tripinfo_veh50" vType="passenger" speedFactor="0.91" vaporized=""/>
    <tripinfo id="veh133" depart="90.00" departLane="-647226814#1_1" departPos="8.62" departSpeed="0.00" departDelay="0.89" arrival="149.00" arrivalLane="-43544179#6_1" arrivalPos="35.50" arrivalSpeed="15.65" duration="59.00" routeLength="549.11" waitingTime="3.00" waitingCount="1" stopTime="0.00" timeLoss="21.39" rerouteNo="0" devices="tripinfo_veh133" vType="passenger" speedFactor="1.13" vaporized=""/>
    <tripinfo id="veh37" depart="25.00" departLane="48736601_1" departPos="184.21" departSpeed="0.00" departDelay="0.21" arrival="165.00" arrivalLane="647621857_0" arrivalPos="41.48" arrivalSpeed="4.81" duration="140.00" routeLength="1434.65" waitingTime="3.00" waitingCount="1" stopTime="0.00" timeLoss="33.15" rerouteNo="0" devices="tripinfo_veh37" vType="passenger" speedFactor="1.06" vaporized=""/>
    <tripinfo id="veh95" depart="64.00" departLane="-1136289987_1" departPos="51.76" departSpeed="0.00" departDelay="0.35" arrival="166.00" arrivalLane="-222608881#0_1" arrivalPos="169.24" arrivalSpeed="12.38" duration="102.00" routeLength="980.45" waitingTime="0.00" waitingCount="0" stopTime="0.00" timeLoss="20.15" rerouteNo="0" devices="tripinfo_veh95" vType="motorcycle" speedFactor="0.94" vaporized=""/>
    <personinfo id="ped7" depart="35.00" type="DEFAULT_PEDTYPE" speedFactor="0.91" duration="133.00" waitingTime="0.00" timeLoss="12.94" traveltime="133.00">
        <walk depart="35.00" departPos="0.00" arrival="168.00" arrivalPos="55.80" duration="133.00" routeLength="150.98" timeLoss="12.94" maxSpeed="1.26"/>
    </personinfo>
    <tripinfo id="veh71" depart="48.00" departLane="-40304754#5_1" departPos="49.46" departSpeed="0.00" departDelay="0.43" arrival="170.00" arrivalLane="354252039#1_1" arrivalPos="19.16" arrivalSpeed="10.96" duration="122.00" routeLength="686.61" waitingTime="48.00" waitingCount="1" stopTime="0.00" timeLoss="62.42" rerouteNo="0" devices="tripinfo_veh71" vType="passenger" speedFactor="0.86" vaporized=""/>
    <tripinfo id="veh104" depart="70.00" departLane="-43545645#0_1" departPos="216.81" departSpeed="0.00" departDelay="0.32" arrival="180.00" arrivalLane="43547017#5_1" arrivalPos="24.31" arrivalSpeed="11.35" duration="110.00" routeLength="1008.63" waitingTime="0.00" waitingCount="0" stopTime="0.00" timeLoss="19.37" rerouteNo="0" devices="tripinfo_veh104" vType="motorcycle" speedFactor="0.84" vaporized=""/>
    <tripinfo id="veh23" depart="16.00" departLane="-40330571#0_1" departPos="6.09" departSpeed="0.00" departDelay="0.59" arrival="184.00" arrivalLane="-578560104#3_1" arrivalPos="122.64" arrivalSpeed="5.95" duration="168.00" routeLength="1273.71" waitingTime="42.00" waitingCount="2" stopTime="0.00" timeLoss="72.11" rerouteNo="0" devices="tripinfo_veh23" vType="passenger" speedFactor="0.99" vaporized=""/>
    <tripinfo id="veh45" depart="31.00" departLane="48736646#1_1" departPos="1.89" departSpeed="0.00" departDelay="0.85" arrival="184.00" arrivalLane="859728622_0" arrivalPos="319.42" arrivalSpeed="5.09" duration="153.00" routeLength="1148.17" waitingTime="3.00" waitingCount="1" stopTime="0.00" timeLoss="30.48" rerouteNo="0" devices="tripinfo_veh45" vType="passenger" speedFactor="1.00" vaporized=""/>
    <tripinfo id="veh195" depart="131.00" departLane="649025399_0" departPos="22.55" departSpeed="0.00" departDelay="0.35" arrival="184.00" arrivalLane="352818096#1_0" arrivalPos="3.80" arrivalSpeed="10.21" duration="53.00" routeLength="641.49" waitingTime="0.00" waitingCount="0" stopTime="0.00" timeLoss="9.77" rerouteNo="0" devices="tripinfo_veh195" vType="passenger" speedFactor="1.10" vaporized=""/>
    <tripinfo id="veh49" depart="33.00" departLane="48778489#3_2" departPos="62.62" departSpeed="0.00" departDelay="0.17" arrival="186.00" arrivalLane="-143207979#3_1" arrivalPos="38.67" arrivalSpeed="12.47" duration="153.00" routeLength="1597.26" waitingTime="2.00" waitingCount="1" stopTime="0.00" timeLoss="28.17" rerouteNo="0" devices="tripinfo_veh49" vType="passenger" speedFactor="0.96" vaporized=""/>
    <tripinfo id="veh112" depart="76.00" departLane="-1135772297_0" departPos="0.32" departSpeed="0.00" departDelay="0.96" arrival="187.00" arrivalLane="48736638#1_1" arrivalPos="89.48" arrivalSpeed="13.05" duration="111.00" routeLength="1054.87" waitingTime="0.00" waitingCount="0" stopTime="0.00" timeLoss="19.57" rerouteNo="0" devices="tripinfo_veh112" vType="delivery" speedFactor="1.01" vaporized=""/>
    <tripinfo id="veh19" depart="13.00" departLane="-48736656#2_1" departPos="13.67" departSpeed="0.00" departDelay="0.27" arrival="188.00" arrivalLane="-492965073#9_1" arrivalPos="76.42" arrivalSpeed="15.51" duration="175.00" routeLength="2092.24" waitingTime="3.00" waitingCount="2" stopTime="0.00" timeLoss="38.62" rerouteNo="0" devices="tripinfo_veh19" vType="passenger" speedFactor="1.13" vaporized=""/>
    <tripinfo id="veh91" depart="61.00" departLane="43544179#7_1" departPos="26.33" departSpeed="0.00" departDelay="0.03" arrival="188.00" arrivalLane="-67736383_1" arrivalPos="44.80" arrivalSpeed="6.38" duration="127.00" routeLength="753.20" waitingTime="0.00" waitingCount="0" stopTime="0.00" timeLoss="11.46" rerouteNo="0" devices="tripinfo_veh91" vType="bicycle" speedFactor="1.18" vaporized=""/>
    <tripinfo id="veh5" depart="4.00" departLane="-40330575#1_1" departPos="2.70" departSpeed="0.00" departDelay="0.65" arrival="191.00" arrivalLane="43546935#3_1" arrivalPos="13.61" arrivalSpeed="13.51" duration="187.00" routeLength="1821.27" waitingTime="22.00" waitingCount="1" stopTime="0.00" timeLoss="55.80" rerouteNo="0" devices="tripinfo_veh5" vType="delivery" speedFactor="1.05" vaporized=""/>
    <personinfo id="ped34" depart="170.00" type="DEFAULT_PEDTYPE" speedFactor="0.98" duration="22.00" waitingTime="0.00" timeLoss="2.76" traveltime="22.00">
        <walk depart="170.00" departPos="0.00" arrival="192.00" arrivalPos="12.18" duration="22.00" routeLength="26.11" timeLoss="2.76" maxSpeed="1.36"/>
    </personinfo>
    <tripinfo id="veh13" depart="9.00" departLane="401741889#1_1" departPos="67.88" departSpeed="0.00" departDelay="0.29" arrival="196.00" arrivalLane="92198453#2_1" arrivalPos="113.66" arrivalSpeed="13.07" duration="187.00" routeLength="2283.99" waitingTime="0.00" waitingCount="0" stopTime="0.00" timeLoss="21.68" rerouteNo="0" devices="tripinfo_veh13" vType="passenger" speedFactor="1.02" vaporized=""/>
    <tripinfo id="veh62" depart="42.00" departLane="-43546105#0_1" departPos="68.24" departSpeed="0.00" departDelay="0.46" arrival="196.00" arrivalLane="-1250915722#2_1" arrivalPos="3.43" arrivalSpeed="5.29" duration="154.00" routeLength="1477.93" waitingTime="0.00" waitingCount="0" stopTime="0.00" timeLoss="28.31" rerouteNo="0" devices="tripinfo_veh62" vType="passenger" speedFactor="1.08" vaporized=""/>
    <tripinfo id="veh106" depart="72.00" departLane="-1136289992_1" departPos="15.57" departSpeed="0.00" departDelay="0.98" arrival="197.00" arrivalLane="-40236144#1_1" arrivalPos="53.50" arrivalSpeed="11.67" duration="125.00" routeLength="1403.41" waitingTime="3.00" waitingCount="2" stopTime="0.00" timeLoss="23.83" rerouteNo="0" devices="tripinfo_veh106" vType="motorcycle" speedFactor="1.04" vaporized=""/>
    <personinfo id="ped8" depart="40.00" type="DEFAULT_PEDTYPE" speedFactor="0.93" duration="158.00" waitingTime="0.00" timeLoss="16.60" traveltime="158.00">
        <walk depart="40.00" departPos="0.00" arrival="198.00" arrivalPos="22.20" duration="158.00" routeLength="182.71" timeLoss="16.60" maxSpeed="1.29"/>
    </personinfo>
    <tripinfo id="veh161" depart="108.00" departLane="-48778498#2_1" departPos="33.83" departSpeed="0.00" departDelay="0.13" arrival="198.00" arrivalLane="-43573547#1_1" arrivalPos="26.16" arrivalSpeed="11.06" duration="90.00" routeLength="767.51" waitingTime="4.00" waitingCount="1" stopTime="0.00" timeLoss="19.91" rerouteNo="0" devices="tripinfo_veh161" vType="passenger" speedFactor="0.83" vaporized=""/>
    <tripinfo id="veh10" depart="7.00" departLane="1137794254_1" departPos="18.29" departSpeed="0.00" departDelay="0.30" arrival="200.00" arrivalLane="-984505045_0" arrivalPos="60.61" arrivalSpeed="5.70" duration="193.00" routeLength="1702.68" waitingTime="4.00" waitingCount="1" stopTime="0.00" timeLoss="57.13" rerouteNo="0" devices="tripinfo_veh10" vType="passenger" speedFactor="1.04" vaporized=""/>
    <tripinfo id="veh20" depart="14.00" departLane="-48778502#1_1" departPos="158.48" departSpeed="0.00" departDelay="0.60" arrival="200.00" arrivalLane="43545645#1_1" arrivalPos="98.66" arrivalSpeed="12.40" duration="186.00" routeLength="1919.31" waitingTime="0.00" waitingCount="0" stopTime="0.00" timeLoss="25.59" rerouteNo="0" devices="tripinfo_veh20" vType="passenger" speedFactor="0.89" vaporized=""/>
    <tripinfo id="veh67" depart="45.00" departLane="40330571#3_1" departPos="175.84" departSpeed="0.00" departDelay="0.11" arrival="200.00" arrivalLane="1135772297_0" arrivalPos="4.72" arrivalSpeed="5.00" duration="155.00" routeLength="1481.22" waitingTime="0.00" waitingCount="0" stopTime="0.00" timeLoss="28.04" rerouteNo="0" devices="tripinfo_veh67" vType="motorcycle" speedFactor="0.94" vaporized=""/>
    <tripinfo id="veh86" depart="58.00" departLane="354259933#3_1" departPos="32.23" departSpeed="0.00" departDelay="0.38" arrival="200.00" arrivalLane="859732801#1_1" arrivalPos="25.05" arrivalSpeed="11.69" duration="142.00" routeLength="1291.40" waitingTime="7.00" waitingCount="2" stopTime="0.00" timeLoss="31.02" rerouteNo="0" devices="tripinfo_veh86" vType="passenger" speedFactor="0.87" vaporized=""/>
    <tripinfo id="veh81" depart="55.00" departLane="48778508#3_1" departPos="1.88" departSpeed="0.00" departDelay="0.73" arrival="201.00" arrivalLane="-48778526_1" arrivalPos="97.35" arrivalSpeed="14.80" duration="146.00" routeLength="1324.52" waitingTime="28.00" waitingCount="1" stopTime="0.00" timeLoss="53.12" rerouteNo="0" devices="tripinfo_veh81" vType="passenger" speedFactor="1.08" vaporized=""/>
    <tripinfo id="veh57" depart="39.00" departLane="-143207979#5_1" departPos="0.49" departSpeed="0.00" departDelay="0.81" arrival="202.00" arrivalLane="383582504#0_0" arrivalPos="3.64" arrivalSpeed="5.03" duration="163.00" routeLength="1830.38" waitingTime="0.00" waitingCount="0" stopTime="0.00" timeLoss="15.96" rerouteNo="0" devices="tripinfo_veh57" vType="passenger" speedFactor="0.92" vaporized=""/>
    <tripinfo id="veh47" depart="32.00" departLane="-40330575#0_1" departPos="15.53" departSpeed="0.00" departDelay="0.51" arrival="204.00" arrivalLane="-40330575#2_1" arrivalPos="59.38" arrivalSpeed="5.49" duration="172.00" routeLength="877.88" waitingTime="0.00" waitingCount="0" stopTime="0.00" timeLoss="12.82" rerouteNo="0" devices="tripinfo_veh47" vType="bicycle" speedFactor="1.00" vaporized=""/>
    <tripinfo id="veh138" depart="93.00" departLane="-1136283379#0_1" departPos="86.08" departSpeed="0.00" departDelay="0.54" arrival="205.00" arrivalLane="-1136301812#1_1" arrivalPos="6.69" arrivalSpeed="8.42" duration="112.00" routeLength="1095.69" waitingTime="0.00" waitingCount="0" stopTime="0.00" timeLoss="24.99" rerouteNo="0" devices="tripinfo_veh138" vType="passenger" speedFactor="1.06" vaporized=""/>
    <tripinfo id="veh153" depart="103.00" departLane="40330583#1_1" departPos="125.72" departSpeed="0.00" departDelay="0.49" arrival="205.00" arrivalLane="-40330575#2_1" arrivalPos="59.38" arrivalSpeed="7.62" duration="102.00" routeLength="971.94" waitingTime="0.00" waitingCount="0" stopTime="0.00" timeLoss="38.38" rerouteNo="0" devices="tripinfo_veh153" vType="passenger" speedFactor="1.07" vaporized=""/>
    <tripinfo id="veh51" depart="35.00" departLane="40329447_1" departPos="2.52" departSpeed="0.00" departDelay="0.83" arrival="207.00" arrivalLane="48778504_1" arrivalPos="191.60" arrivalSpeed="12.66" duration="172.00" routeLength="1881.01" waitingTime="0.00" waitingCount="0" stopTime="0.00" timeLoss="24.71" rerouteNo="0" devices="tripinfo_veh51" vType="passenger" speedFactor="0.95" vaporized=""/>
    <tripinfo id="veh146" depart="98.00" departLane="353939574_0" departPos="178.20" departSpeed="0.00" departDelay="0.18" arrival="208.00" arrivalLane="995051712_1" arrivalPos="194.59" arrivalSpeed="13.16" duration="110.00" routeLength="1309.71" waitingTime="0.00" waitingCount="0" stopTime="0.00" timeLoss="13.85" rerouteNo="0" devices="tripinfo_veh146" vType="passenger" speedFactor="1.03" vaporized=""/>
    <tripinfo id="veh87" depart="59.00" departLane="383582505_0" departPos="36.97" departSpeed="0.00" departDelay="0.71" arrival="209.00" arrivalLane="-859728208#0_0" arrivalPos="24.68" arrivalSpeed="4.39" duration="150.00" routeLength="1115.15" waitingTime="0.00" waitingCount="0" stopTime="0.00" timeLoss="25.72" rerouteNo="0" devices="tripinfo_veh87" vType="delivery" speedFactor="1.01" vaporized=""/>
    <tripinfo id="veh116" depart="78.00" departLane="E13_1" departPos="29.66" departSpeed="0.00" departDelay="0.28" arrival="211.00" arrivalLane="-1054663953_0" arrivalPos="46.63" arrivalSpeed="4.34" duration="133.00" routeLength="1096.32" waitingTime="17.00" waitingCount="1" stopTime="0.00" timeLoss="34.76" rerouteNo="0" devices="tripinfo_veh116" vType="passenger" speedFactor="0.89" vaporized=""/>
    <tripinfo id="veh27" depart="19.00" departLane="48778485#0_1" departPos="14.26" departSpeed="0.00" departDelay="0.91" arrival="212.00" arrivalLane="43544197#7_1" arrivalPos="49.46" arrivalSpeed="14.45" duration="193.00" routeLength="1695.47" waitingTime="37.00" waitingCount="1" stopTime="0.00" timeLoss="76.39" rerouteNo="0" devices="tripinfo_veh27" vType="passenger" speedFactor="1.10" vaporized=""/>
    <tripinfo id="veh56" depart="38.00" departLane="33909936#5_1" departPos="46.03" departSpeed="0.00" departDelay="0.48" arrival="213.00" arrivalLane="48736638#2_1" arrivalPos="27.21" arrivalSpeed="13.35" duration="175.00" routeLength="2169.15" waitingTime="0.00" waitingCount="0" stopTime="0.00" timeLoss="20.06" rerouteNo="0" devices="tripinfo_veh56" vType="passenger" speedFactor="1.03" vaporized=""/>
    <tripinfo id="veh83" depart="56.00" departLane="43544001#7_1" departPos="5.46" departSpeed="0.00" departDelay="0.39" arrival="217.00" arrivalLane="-43573769#0_1" arrivalPos="44.70" arrivalSpeed="12.91" duration="161.00" routeLength="1442.02" waitingTime="36.00" waitingCount="1" stopTime="0.00" timeLoss="52.23" rerouteNo="0" devices="tripinfo_veh83" vType="passenger" speedFactor="0.98" vaporized=""/>
    <tripinfo id="veh109" depart="74.00" departLane="48778500#0_1" departPos="14.54" departSpeed="0.00" departDelay="0.97" arrival="217.00" arrivalLane="-40236259_1" arrivalPos="166.63" arrivalSpeed="14.06" duration="143.00" routeLength="1534.10" waitingTime="0.00" waitingCount="0" stopTime="0.00" timeLoss="28.05" rerouteNo="0" devices="tripinfo_veh109" vType="passenger" speedFactor="1.02" vaporized=""/>
    <tripinfo id="veh48" depart="33.00" departLane="43546053#0_1" departPos="48.41" departSpeed="0.00" departDelay="0.84" arrival="218.00" arrivalLane="-40236144#0_1" arrivalPos="70.18" arrivalSpeed="13.08" duration="185.00" routeLength="2142.12" waitingTime="0.00" waitingCount="0" stopTime="0.00" timeLoss="25.34" rerouteNo="0" devices="tripinfo_veh48" vType="delivery" speedFactor="0.99" vaporized=""/>
    <tripinfo id="veh119" depart="80.00" departLane="-222609004#1_1" departPos="28.45" departSpeed="0.00" departDelay="0.27" arrival="219.00" arrivalLane="43544624#0_1" arrivalPos="295.29" arrivalSpeed="11.53" duration="139.00" routeLength="1554.23" waitingTime="3.00" waitingCount="1" stopTime="0.00" timeLoss="27.98" rerouteNo="0" devices="tripinfo_veh119" vType="motorcycle" speedFactor="1.04" vaporized=""/>
    <tripinfo id="veh136" depart="92.00" departLane="222605085#1_1" departPos="129.96" departSpeed="0.00" departDelay="0.88" arrival="219.00" arrivalLane="40330592_1" arrivalPos="133.23" arrivalSpeed="12.09" duration="127.00" routeLength="812.36" waitingTime="0.00" waitingCount="0" stopTime="0.00" timeLoss="56.92" rerouteNo="0" devices="tripinfo_veh136" vType="passenger" speedFactor="0.90" vaporized=""/>
    <tripinfo id="veh70" depart="47.00" departLane="-250295383#4_1" departPos="13.90" departSpeed="0.00" departDelay="0.10" arrival="220.00" arrivalLane="-33913538#4_1" arrivalPos="30.97" arrivalSpeed="13.86" duration="173.00" routeLength="1597.25" waitingTime="44.00" waitingCount="1" stopTime="0.00" timeLoss="62.67" rerouteNo="0" devices="tripinfo_veh70" vType="passenger" speedFactor="1.06" vaporized=""/>
    <tripinfo id="veh25" depart="17.00" departLane="-222605084#1_1" departPos="0.01" departSpeed="0.00" departDelay="0.25" arrival="221.00" arrivalLane="48778516_1" arrivalPos="193.31" arrivalSpeed="13.92" duration="204.00" routeLength="1610.18" waitingTime="46.00" waitingCount="1" stopTime="0.00" timeLoss="74.89" rerouteNo="0" devices="tripinfo_veh25" vType="motorcycle" speedFactor="1.02" vaporized=""/>
    <tripinfo id="veh221" depart="149.00" departLane="859728205_0" departPos="65.38" departSpeed="0.00" departDelay="0.93" arrival="223.00" arrivalLane="994066251#1_0" arrivalPos="3.30" arrivalSpeed="3.01" duration="74.00" routeLength="422.59" waitingTime="0.00" waitingCount="0" stopTime="0.00" timeLoss="20.42" rerouteNo="0" devices="tripinfo_veh221" vType="motorcycle" speedFactor="0.96" vaporized=""/>
    <tripinfo id="veh61" depart="41.00" departLane="401741889#0_1" departPos="138.14" departSpeed="0.00" departDelay="0.13" arrival="226.00" arrivalLane="43547256#2_1" arrivalPos="217.55" arrivalSpeed="13.39" duration="185.00" routeLength="2222.25" waitingTime="0.00" waitingCount="0" stopTime="0.00" timeLoss="23.48" rerouteNo="0" devices="tripinfo_veh61" vType="passenger" speedFactor="1.02" vaporized=""/>
    <tripinfo id="veh134" depart="90.00" departLane="-859732803#1_0" departPos="1.91" departSpeed="0.00" departDelay="0.22" arrival="228.00" arrivalLane="984521612#1_0" arrivalPos="29.21" arrivalSpeed="4.60" duration="138.00" routeLength="1299.95" waitingTime="0.00" waitingCount="0" stopTime="0.00" timeLoss="24.86" rerouteNo="0" devices="tripinfo_veh134" vType="passenger" speedFactor="0.98" vaporized=""/>
    <tripinfo id="veh173" depart="116.00" departLane="984521612#0_0" departPos="0.36" departSpeed="0.00" departDelay="0.09" arrival="228.00" arrivalLane="-48736620#5_1" arrivalPos="11.94" arrivalSpeed="15.52" duration="112.00" routeLength="1174.25" waitingTime="9.00" waitingCount="1" stopTime="0.00" timeLoss="26.45" rerouteNo="0" devices="tripinfo_veh173" vType="passenger" speedFactor="1.17" vaporized=""/>
    <tripinfo id="veh260" depart="175.00" departLane="-67736383_1" departPos="27.70" departSpeed="0.00" departDelay="0.80" arrival="228.00" arrivalLane="48778525#2_1" arrivalPos="124.59" arrivalSpeed="13.52" duration="53.00" routeLength="506.61" waitingTime="0.00" waitingCount="0" stopTime="0.00" timeLoss="13.28" rerouteNo="0" devices="tripinfo_veh260" vType="emergency" speedFactor="1.00" vaporized=""/>
    <tripinfo id="veh31" depart="21.00" departLane="40305706#1_1" departPos="29.68" departSpeed="0.00" departDelay="0.23" arrival="229.00" arrivalLane="647677163_1" arrivalPos="73.51" arrivalSpeed="13.90" duration="208.00" routeLength="1778.88" waitingTime="42.00" waitingCount="3" stopTime="0.00" timeLoss="80.15" rerouteNo="0" devices="tripinfo_veh31" vType="passenger" speedFactor="1.04" vaporized=""/>
    <tripinfo id="veh44" depart="30.00" departLane="40334244#1_1" departPos="12.75" departSpeed="0.00" departDelay="0.52" arrival="229.00" arrivalLane="-1135855912_1" arrivalPos="95.20" arrivalSpeed="13.36" duration="199.00" routeLength="2419.59" waitingTime="0.00" waitingCount="0" stopTime="0.00" timeLoss="23.56" rerouteNo="0" devices="tripinfo_veh44" vType="passenger" speedFactor="1.02" vaporized=""/>
    <tripinfo id="veh144" depart="97.00" departLane="40265778#0_2" departPos="29.52" departSpeed="0.00" departDelay="0.52" arrival="230.00" arrivalLane="48778494#1_1" arrivalPos="15.92" arrivalSpeed="14.14" duration="133.00" routeLength="847.65" waitingTime="44.00" waitingCount="2" stopTime="0.00" timeLoss="74.47" rerouteNo="0" devices="tripinfo_veh144" vType="motorcycle" speedFactor="1.08" vaporized=""/>
    <tripinfo id="veh165" depart="111.00" departLane="E15_1" departPos="15.54" departSpeed="0.00" departDelay="0.45" arrival="231.00" arrivalLane="-222609002#1_1" arrivalPos="24.71" arrivalSpeed="14.45" duration="120.00" routeLength="981.87" waitingTime="17.00" waitingCount="2" stopTime="0.00" timeLoss="44.22" rerouteNo="0" devices="tripinfo_veh165" vType="passenger" speedFactor="1.07" vaporized=""/>
    <tripinfo id="veh11" depart="8.00" departLane="647741479_1" departPos="31.59" departSpeed="0.00" departDelay="0.63" arrival="233.00" arrivalLane="-223942064#0.371_0" arrivalPos="264.48" arrivalSpeed="12.35" duration="225.00" routeLength="2347.62" waitingTime="14.00" waitingCount="2" stopTime="0.00" timeLoss="46.73" rerouteNo="0" devices="tripinfo_veh11" vType="delivery" speedFactor="0.97" vaporized=""/>
    <tripinfo id="veh94" depart="63.00" departLane="-859732802#0_0" departPos="4.63" departSpeed="0.00" departDelay="0.02" arrival="233.00" arrivalLane="48778511_1" arrivalPos="75.86" arrivalSpeed="10.92" duration="170.00" routeLength="1825.22" waitingTime="0.00" waitingCount="0" stopTime="0.00" timeLoss="28.63" rerouteNo="0" devices="tripinfo_veh94" vType="motorcycle" speedFactor="0.98" vaporized=""/>