<?xml version="1.0" encoding="UTF-8"?>

<!-- generated on 2025-06-15 22:23:31 by Eclipse SUMO sumo Version 1.22.0
<sumoConfiguration xmlns:xsi="http://www.w3.org/2001/XMLSchema-instance" xsi:noNamespaceSchemaLocation="http://sumo.dlr.de/xsd/sumoConfiguration.xsd">

    <input>
        <net-file value="E:/licenta/oras-mediu/2025-06-05-11-45-23\osm.net.xml"/>
        <route-files value="E:/licenta/oras-mediu/2025-06-05-11-45-23\full.rou.xml,E:/licenta/oras-mediu/2025-06-05-11-45-23\ ped.rou.xml,E:/licenta/oras-mediu/2025-06-05-11-45-23\ truck.rou.xml"/>
        <additional-files value="E:/licenta/oras-mediu/2025-06-05-11-45-23\osm.poly.xml,E:/licenta/oras-mediu/2025-06-05-11-45-23\ vtypes.xml"/>
    </input>

    <output>
        <summary-output value="E:/licenta/oras-mediu/2025-06-05-11-45-23\summary.xml"/>
        <tripinfo-output value="evaluation_run_outputs\baseline_outputs\tripinfo_baseline_ep16.xml"/>
    </output>

    <processing>
        <ignore-route-errors value="true"/>
        <tls.actuated.jam-threshold value="30"/>
    </processing>

    <routing>
        <device.rerouting.adaptation-steps value="18"/>
        <device.rerouting.adaptation-interval value="10"/>
    </routing>

    <report>
        <verbose value="true"/>
        <duration-log.statistics value="true"/>
        <no-step-log value="true"/>
    </report>

    <gui_only>
        <gui-settings-file value="E:/licenta/oras-mediu/2025-06-05-11-45-23\osm.view.xml"/>
    </gui_only>

</sumoConfiguration>
-->

<tripinfos xmlns:xsi="http://www.w3.org/2001/XMLSchema-instance" xsi:noNamespaceSchemaLocation="http://sumo.dlr.de/xsd/tripinfo_file.xsd">
    <tripinfo id="veh10" depart="8.00" departLane="383582508#1_0" departPos="17.10" departSpeed="0.00" departDelay="0.80" arrival="65.00" arrivalLane="-48778508#0_1" arrivalPos="11.34" arrivalSpeed="13.48" duration="57.00" routeLength="626.27" waitingTime="0.00" waitingCount="0" stopTime="0.00" timeLoss="8.75" rerouteNo="0" devices="tripinfo_veh10" vType="passenger" speedFactor="1.04" vaporized=""/>
    <tripinfo id="veh33" depart="24.00" departLane="-1136283361_0" departPos="40.42" departSpeed="0.00" departDelay="0.24" arrival="71.00" arrivalLane="48778494#0_1" arrivalPos="50.01" arrivalSpeed="13.20" duration="47.00" routeLength="341.53" waitingTime="0.00" waitingCount="0" stopTime="0.00" timeLoss="15.59" rerouteNo="0" devices="tripinfo_veh33" vType="emergency" speedFactor="1.00" vaporized=""/>
    <tripinfo id="veh24" depart="18.00" departLane="40305706#0_1" departPos="29.94" departSpeed="0.00" departDelay="0.72" arrival="93.00" arrivalLane="-984521612#1_0" arrivalPos="29.21" arrivalSpeed="4.70" duration="75.00" routeLength="697.49" waitingTime="0.00" waitingCount="0" stopTime="0.00" timeLoss="16.31" rerouteNo="0" devices="tripinfo_veh24" vType="passenger" speedFactor="0.97" vaporized=""/>
    <tripinfo id="veh27" depart="20.00" departLane="859728206_0" departPos="1.60" departSpeed="0.00" departDelay="0.56" arrival="95.00" arrivalLane="-E12.34_1" arrivalPos="55.77" arrivalSpeed="14.33" duration="75.00" routeLength="322.20" waitingTime="25.00" waitingCount="1" stopTime="0.00" timeLoss="38.76" rerouteNo="0" devices="tripinfo_veh27" vType="passenger" speedFactor="1.10" vaporized=""/>
    <tripinfo id="veh6" depart="5.00" departLane="354259933#1_1" departPos="21.58" departSpeed="0.00" departDelay="0.68" arrival="98.00" arrivalLane="43573547#5_1" arrivalPos="56.54" arrivalSpeed="11.91" duration="93.00" routeLength="1003.92" waitingTime="0.00" waitingCount="0" stopTime="0.00" timeLoss="12.45" rerouteNo="0" devices="tripinfo_veh6" vType="passenger" speedFactor="0.92" vaporized=""/>
    <tripinfo id="veh56" depart="41.00" departLane="492965073#7_1" departPos="7.36" departSpeed="0.00" departDelay="0.68" arrival="99.00" arrivalLane="1136301812#0_1" arrivalPos="36.85" arrivalSpeed="12.22" duration="58.00" routeLength="250.19" waitingTime="6.00" waitingCount="1" stopTime="0.00" timeLoss="21.72" rerouteNo="0" devices="tripinfo_veh56" vType="delivery" speedFactor="0.96" vaporized=""/>
    <tripinfo id="veh44" depart="32.00" departLane="-43573547#2_1" departPos="35.93" departSpeed="0.00" departDelay="0.32" arrival="103.00" arrivalLane="40236203#1_1" arrivalPos="32.69" arrivalSpeed="12.69" duration="71.00" routeLength="862.77" waitingTime="0.00" waitingCount="0" stopTime="0.00" timeLoss="6.40" rerouteNo="0" devices="tripinfo_veh44" vType="delivery" speedFactor="0.98" vaporized=""/>
    <tripinfo id="veh47" depart="34.00" departLane="859737784_1" departPos="35.52" departSpeed="0.00" departDelay="0.16" arrival="106.00" arrivalLane="-43546935#3_1" arrivalPos="13.61" arrivalSpeed="10.58" duration="72.00" routeLength="804.02" waitingTime="0.00" waitingCount="0" stopTime="0.00" timeLoss="10.99" rerouteNo="0" devices="tripinfo_veh47" vType="passenger" speedFactor="1.00" vaporized=""/>
    <tripinfo id="veh30" depart="22.00" departLane="-48778510#0_1" departPos="2.63" departSpeed="0.00" departDelay="0.40" arrival="127.00" arrivalLane="859734514#1_0" arrivalPos="56.51" arrivalSpeed="4.86" duration="105.00" routeLength="755.55" waitingTime="21.00" waitingCount="1" stopTime="0.00" timeLoss="38.94" rerouteNo="0" devices="tripinfo_veh30" vType="passenger" speedFactor="1.07" vaporized=""/>
    <personinfo id="ped19" depart="95.00" type="DEFAULT_PEDTYPE" speedFactor="0.97" duration="33.00" waitingTime="0.00" timeLoss="3.75" traveltime="33.00">
        <walk depart="95.00" departPos="0.00" arrival="128.00" arrivalPos="17.60" duration="33.00" routeLength="39.31" timeLoss="3.75" maxSpeed="1.34"/>
    </personinfo>
    <tripinfo id="veh26" depart="19.00" departLane="48778498#2_1" departPos="8.43" departSpeed="0.00" departDelay="0.28" arrival="131.00" arrivalLane="-258551283#1_1" arrivalPos="55.98" arrivalSpeed="13.05" duration="112.00" routeLength="1144.22" waitingTime="1.00" waitingCount="1" stopTime="0.00" timeLoss="21.24" rerouteNo="0" devices="tripinfo_veh26" vType="passenger" speedFactor="0.94" vaporized=""/>
    <tripinfo id="veh75" depart="54.00" departLane="43546789#0_1" departPos="7.98" departSpeed="0.00" departDelay="0.00" arrival="131.00" arrivalLane="-43573547#2_1" arrivalPos="42.21" arrivalSpeed="14.78" duration="77.00" routeLength="960.92" waitingTime="0.00" waitingCount="0" stopTime="0.00" timeLoss="14.40" rerouteNo="0" devices="tripinfo_veh75" vType="passenger" speedFactor="1.14" vaporized=""/>
    <tripinfo id="veh25" depart="18.00" departLane="-48797765#2_1" departPos="1.26" departSpeed="0.00" departDelay="0.00" arrival="144.00" arrivalLane="48778494#1_1" arrivalPos="15.92" arrivalSpeed="12.88" duration="126.00" routeLength="1348.73" waitingTime="0.00" waitingCount="0" stopTime="0.00" timeLoss="25.10" rerouteNo="0" devices="tripinfo_veh25" vType="motorcycle" speedFactor="1.02" vaporized=""/>
    <tripinfo id="veh66" depart="48.00" departLane="671642327_0" departPos="12.64" departSpeed="0.00" departDelay="0.48" arrival="153.00" arrivalLane="-945794108_1" arrivalPos="20.90" arrivalSpeed="8.10" duration="105.00" routeLength="863.01" waitingTime="0.00" waitingCount="0" stopTime="0.00" timeLoss="14.75" rerouteNo="0" devices="tripinfo_veh66" vType="passenger" speedFactor="0.98" vaporized=""/>
    <tripinfo id="veh1" depart="1.00" departLane="1136119743#0_1" departPos="1.11" departSpeed="0.00" departDelay="0.28" arrival="154.00" arrivalLane="48778480#7_1" arrivalPos="258.72" arrivalSpeed="14.57" duration="153.00" routeLength="1544.50" waitingTime="17.00" waitingCount="1" stopTime="0.00" timeLoss="39.00" rerouteNo="0" devices="tripinfo_veh1" vType="passenger" speedFactor="1.08" vaporized=""/>
    <tripinfo id="veh94" depart="68.00" departLane="48778473#1_1" departPos="29.20" departSpeed="0.00" departDelay="0.32" arrival="161.00" arrivalLane="48778494#1_1" arrivalPos="15.92" arrivalSpeed="13.73" duration="93.00" routeLength="1045.35" waitingTime="0.00" waitingCount="0" stopTime="0.00" timeLoss="14.24" rerouteNo="0" devices="tripinfo_veh94" vType="passenger" speedFactor="0.99" vaporized=""/>
    <tripinfo id="veh125" depart="90.00" departLane="859738688_0" departPos="201.43" departSpeed="0.00" departDelay="0.00" arrival="161.00" arrivalLane="48736614#1_1" arrivalPos="221.38" arrivalSpeed="11.91" duration="71.00" routeLength="704.09" waitingTime="0.00" waitingCount="0" stopTime="0.00" timeLoss="16.01" rerouteNo="0" devices="tripinfo_veh125" vType="motorcycle" speedFactor="1.01" vaporized=""/>
    <tripinfo id="veh98" depart="71.00" departLane="-43544197#7_1" departPos="29.75" departSpeed="0.00" departDelay="0.44" arrival="162.00" arrivalLane="48778505#3_1" arrivalPos="13.21" arrivalSpeed="10.09" duration="91.00" routeLength="898.73" waitingTime="2.00" waitingCount="1" stopTime="0.00" timeLoss="24.46" rerouteNo="0" devices="tripinfo_veh98" vType="passenger" speedFactor="1.02" vaporized=""/>
    <tripinfo id="veh197" depart="142.00" departLane="470210923#3_1" departPos="1.39" departSpeed="0.00" departDelay="0.16" arrival="162.00" arrivalLane="-92198453#4_1" arrivalPos="62.81" arrivalSpeed="13.65" duration="20.00" routeLength="192.67" waitingTime="0.00" waitingCount="0" stopTime="0.00" timeLoss="5.28" rerouteNo="0" devices="tripinfo_veh197" vType="emergency" speedFactor="1.00" vaporized=""/>
    <personinfo id="ped6" depart="30.00" type="DEFAULT_PEDTYPE" speedFactor="0.87" duration="133.00" waitingTime="0.00" timeLoss="13.05" traveltime="133.00">
        <walk depart="30.00" departPos="0.00" arrival="163.00" arrivalPos="84.62" duration="133.00" routeLength="145.37" timeLoss="13.05" maxSpeed="1.21"/>
    </personinfo>
    <tripinfo id="veh120" depart="87.00" departLane="-492965073#7_2" departPos="1.84" departSpeed="0.00" departDelay="0.60" arrival="174.00" arrivalLane="-1135855912_1" arrivalPos="95.20" arrivalSpeed="13.06" duration="87.00" routeLength="712.55" waitingTime="0.00" waitingCount="0" stopTime="0.00" timeLoss="17.83" rerouteNo="0" devices="tripinfo_veh120" vType="motorcycle" speedFactor="1.04" vaporized=""/>
    <tripinfo id="veh77" depart="56.00" departLane="-43546105#3_1" departPos="25.96" departSpeed="0.00" departDelay="0.56" arrival="175.00" arrivalLane="-33909936#2_1" arrivalPos="60.97" arrivalSpeed="13.40" duration="119.00" routeLength="1355.23" waitingTime="0.00" waitingCount="0" stopTime="0.00" timeLoss="17.77" rerouteNo="0" devices="tripinfo_veh77" vType="emergency" speedFactor="1.00" vaporized=""/>
    <tripinfo id="veh62" depart="45.00" departLane="-43544179#3_1" departPos="50.27" departSpeed="0.00" departDelay="0.36" arrival="176.00" arrivalLane="671642290_1" arrivalPos="87.70" arrivalSpeed="11.68" duration="131.00" routeLength="1352.98" waitingTime="0.00" waitingCount="0" stopTime="0.00" timeLoss="17.93" rerouteNo="0" devices="tripinfo_veh62" vType="passenger" speedFactor="0.90" vaporized=""/>
    <tripinfo id="veh49" depart="36.00" departLane="-40330575#3_1" departPos="4.40" departSpeed="0.00" departDelay="0.72" arrival="183.00" arrivalLane="-E12_1" arrivalPos="17.16" arrivalSpeed="15.52" duration="147.00" routeLength="1845.73" waitingTime="3.00" waitingCount="1" stopTime="0.00" timeLoss="26.26" rerouteNo="0" devices="tripinfo_veh49" vType="passenger" speedFactor="1.12" vaporized=""/>
    <tripinfo id="veh40" depart="29.00" departLane="-1136117604_1" departPos="18.24" departSpeed="0.00" departDelay="0.20" arrival="185.00" arrivalLane="43546688#0_1" arrivalPos="19.83" arrivalSpeed="12.29" duration="156.00" routeLength="1677.43" waitingTime="0.00" waitingCount="0" stopTime="0.00" timeLoss="29.66" rerouteNo="0" devices="tripinfo_veh40" vType="motorcycle" speedFactor="1.00" vaporized=""/>
    <tripinfo id="veh139" depart="101.00" departLane="48736656#3_1" departPos="19.66" departSpeed="0.00" departDelay="0.92" arrival="185.00" arrivalLane="176279225#2_2" arrivalPos="97.77" arrivalSpeed="12.01" duration="84.00" routeLength="709.43" waitingTime="6.00" waitingCount="1" stopTime="0.00" timeLoss="27.11" rerouteNo="0" devices="tripinfo_veh139" vType="passenger" speedFactor="0.96" vaporized=""/>
    <tripinfo id="veh100" depart="72.00" departLane="-43544179#3_1" departPos="43.63" departSpeed="0.00" departDelay="0.00" arrival="186.00" arrivalLane="43544197#2_1" arrivalPos="42.39" arrivalSpeed="13.68" duration="114.00" routeLength="1366.96" waitingTime="0.00" waitingCount="0" stopTime="0.00" timeLoss="15.38" rerouteNo="0" devices="tripinfo_veh100" vType="passenger" speedFactor="1.03" vaporized=""/>
    <tripinfo id="veh7" depart="6.00" departLane="-859734513_0" departPos="53.59" departSpeed="0.00" departDelay="0.96" arrival="187.00" arrivalLane="-40329447_1" arrivalPos="12.91" arrivalSpeed="11.69" duration="181.00" routeLength="1608.23" waitingTime="27.00" waitingCount="2" stopTime="0.00" timeLoss="65.28" rerouteNo="0" devices="tripinfo_veh7" vType="passenger" speedFactor="1.12" vaporized=""/>
    <tripinfo id="veh16" depart="12.00" departLane="-143207979#4_1" departPos="15.08" departSpeed="0.00" departDelay="0.48" arrival="187.00" arrivalLane="40306162#1_1" arrivalPos="38.73" arrivalSpeed="12.80" duration="175.00" routeLength="1859.60" waitingTime="5.00" waitingCount="1" stopTime="0.00" timeLoss="37.78" rerouteNo="0" devices="tripinfo_veh16" vType="passenger" speedFactor="1.01" vaporized=""/>
    <tripinfo id="veh36" depart="26.00" departLane="48788485#9_1" departPos="166.70" departSpeed="0.00" departDelay="0.08" arrival="187.00" arrivalLane="40265775#1_1" arrivalPos="76.38" arrivalSpeed="11.68" duration="161.00" routeLength="1599.02" waitingTime="0.00" waitingCount="0" stopTime="0.00" timeLoss="24.43" rerouteNo="0" devices="tripinfo_veh36" vType="passenger" speedFactor="0.88" vaporized=""/>
    <tripinfo id="veh51" depart="37.00" departLane="578560104#5_1" departPos="2.24" departSpeed="0.00" departDelay="0.28" arrival="187.00" arrivalLane="1250915724#0_1" arrivalPos="12.38" arrivalSpeed="4.48" duration="150.00" routeLength="1064.24" waitingTime="26.00" waitingCount="1" stopTime="0.00" timeLoss="52.59" rerouteNo="0" devices="tripinfo_veh51" vType="delivery" speedFactor="0.99" vaporized=""/>
    <tripinfo id="veh111" depart="85.00" departLane="-40236144#1_1" departPos="20.24" departSpeed="0.00" departDelay="5.08" arrival="188.00" arrivalLane="671642324_1" arrivalPos="52.30" arrivalSpeed="13.01" duration="103.00" routeLength="1143.35" waitingTime="0.00" waitingCount="0" stopTime="0.00" timeLoss="18.99" rerouteNo="0" devices="tripinfo_veh111" vType="passenger" speedFactor="1.02" vaporized=""/>
    <tripinfo id="veh178" depart="129.00" departLane="-43544184#3_1" departPos="30.12" departSpeed="0.00" departDelay="0.84" arrival="189.00" arrivalLane="-258551283#1_1" arrivalPos="55.98" arrivalSpeed="12.70" duration="60.00" routeLength="611.73" waitingTime="0.00" waitingCount="0" stopTime="0.00" timeLoss="11.75" rerouteNo="0" devices="tripinfo_veh178" vType="passenger" speedFactor="0.96" vaporized=""/>
    <tripinfo id="veh34" depart="25.00" departLane="353939570#2_2" departPos="2.26" departSpeed="0.00" departDelay="0.52" arrival="192.00" arrivalLane="48778453_1" arrivalPos="29.18" arrivalSpeed="12.64" duration="167.00" routeLength="1907.37" waitingTime="0.00" waitingCount="0" stopTime="0.00" timeLoss="35.25" rerouteNo="0" devices="tripinfo_veh34" vType="passenger" speedFactor="1.09" vaporized=""/>
    <tripinfo id="veh88" depart="64.00" departLane="43573573#3_1" departPos="10.52" departSpeed="0.00" departDelay="0.64" arrival="192.00" arrivalLane="43546039#1_1" arrivalPos="97.78" arrivalSpeed="11.60" duration="128.00" routeLength="1250.00" waitingTime="0.00" waitingCount="0" stopTime="0.00" timeLoss="19.71" rerouteNo="0" devices="tripinfo_veh88" vType="passenger" speedFactor="0.87" vaporized=""/>
    <personinfo id="ped0" depart="0.00" type="DEFAULT_PEDTYPE" speedFactor="1.03" duration="194.00" waitingTime="0.00" timeLoss="18.90" traveltime="194.00">
        <walk depart="0.00" departPos="0.00" arrival="194.00" arrivalPos="5.49" duration="194.00" routeLength="250.57" timeLoss="18.90" maxSpeed="1.43"/>
    </personinfo>
    <tripinfo id="veh97" depart="70.00" departLane="383582509_0" departPos="81.41" departSpeed="0.00" departDelay="0.16" arrival="196.00" arrivalLane="48778473#0_1" arrivalPos="21.31" arrivalSpeed="10.98" duration="126.00" routeLength="1096.20" waitingTime="24.00" waitingCount="1" stopTime="0.00" timeLoss="45.25" rerouteNo="0" devices="tripinfo_veh97" vType="passenger" speedFactor="1.03" vaporized=""/>
    <tripinfo id="veh92" depart="67.00" departLane="48778499#0_1" departPos="1.06" departSpeed="0.00" departDelay="0.76" arrival="198.00" arrivalLane="859732802#0_0" arrivalPos="5.59" arrivalSpeed="6.30" duration="131.00" routeLength="780.72" waitingTime="0.00" waitingCount="0" stopTime="0.00" timeLoss="11.56" rerouteNo="0" devices="tripinfo_veh92" vType="bicycle" speedFactor="1.18" vaporized=""/>
    <tripinfo id="veh84" depart="61.00" departLane="-40345956#2_1" departPos="17.31" departSpeed="0.00" departDelay="0.52" arrival="200.00" arrivalLane="1136283379#0_1" arrivalPos="100.95" arrivalSpeed="7.74" duration="139.00" routeLength="1017.67" waitingTime="20.00" waitingCount="2" stopTime="0.00" timeLoss="53.18" rerouteNo="0" devices="tripinfo_veh84" vType="passenger" speedFactor="1.03" vaporized=""/>
    <tripinfo id="veh141" depart="102.00" departLane="-40299241#2_1" departPos="93.22" departSpeed="0.00" departDelay="0.48" arrival="200.00" arrivalLane="-48797767#2_1" arrivalPos="15.37" arrivalSpeed="6.03" duration="98.00" routeLength="537.09" waitingTime="0.00" waitingCount="0" stopTime="0.00" timeLoss="8.33" rerouteNo="0" devices="tripinfo_veh141" vType="bicycle" speedFactor="1.09" vaporized=""/>
    <tripinfo id="veh57" depart="42.00" departLane="-43546688#2_1" departPos="33.18" departSpeed="0.00" departDelay="0.96" arrival="201.00" arrivalLane="-43544138#0_1" arrivalPos="44.10" arrivalSpeed="13.37" duration="159.00" routeLength="1882.02" waitingTime="0.00" waitingCount="0" stopTime="0.00" timeLoss="26.69" rerouteNo="0" devices="tripinfo_veh57" vType="passenger" speedFactor="1.06" vaporized=""/>
    <tripinfo id="veh126" depart="91.00" departLane="-48778524#1_1" departPos="3.51" departSpeed="0.00" departDelay="0.28" arrival="201.00" arrivalLane="859735387#1_0" arrivalPos="30.39" arrivalSpeed="3.95" duration="110.00" routeLength="820.74" waitingTime="8.00" waitingCount="1" stopTime="0.00" timeLoss="27.20" rerouteNo="0" devices="tripinfo_veh126" vType="passenger" speedFactor="0.91" vaporized=""/>
    <tripinfo id="veh134" depart="97.00" departLane="-48736666#2_1" departPos="51.42" departSpeed="0.00" departDelay="0.52" arrival="202.00" arrivalLane="48736657#1_1" arrivalPos="19.18" arrivalSpeed="13.09" duration="105.00" routeLength="737.84" waitingTime="26.00" waitingCount="2" stopTime="0.00" timeLoss="54.53" rerouteNo="0" devices="tripinfo_veh134" vType="passenger" speedFactor="1.13" vaporized=""/>
    <tripinfo id="veh189" depart="137.00" departLane="-383582854#0_0" departPos="3.70" departSpeed="0.00" departDelay="0.92" arrival="202.00" arrivalLane="-40314583#3_1" arrivalPos="34.64" arrivalSpeed="11.93" duration="65.00" routeLength="597.07" waitingTime="0.00" waitingCount="0" stopTime="0.00" timeLoss="13.43" rerouteNo="0" devices="tripinfo_veh189" vType="delivery" speedFactor="0.93" vaporized=""/>
    <tripinfo id="veh191" depart="138.00" departLane="40305706#2_1" departPos="24.55" departSpeed="0.00" departDelay="0.48" arrival="204.00" arrivalLane="-1136301818_1" arrivalPos="34.45" arrivalSpeed="12.78" duration="66.00" routeLength="629.73" waitingTime="0.00" waitingCount="0" stopTime="0.00" timeLoss="16.82" rerouteNo="0" devices="tripinfo_veh191" vType="delivery" speedFactor="0.99" vaporized=""/>
    <tripinfo id="veh89" depart="65.00" departLane="-43544184#4_1" departPos="12.00" departSpeed="0.00" departDelay="0.92" arrival="208.00" arrivalLane="-1136283379#0_1" arrivalPos="91.86" arrivalSpeed="8.21" duration="143.00" routeLength="1429.88" waitingTime="0.00" waitingCount="0" stopTime="0.00" timeLoss="32.04" rerouteNo="0" devices="tripinfo_veh89" vType="delivery" speedFactor="1.01" vaporized=""/>
    <tripinfo id="veh116" depart="84.00" departLane="-48797770_1" departPos="7.65" departSpeed="0.00" departDelay="0.48" arrival="208.00" arrivalLane="-48736620#0_1" arrivalPos="29.26" arrivalSpeed="16.36" duration="124.00" routeLength="1387.79" waitingTime="16.00" waitingCount="1" stopTime="0.00" timeLoss="39.59" rerouteNo="0" devices="tripinfo_veh116" vType="passenger" speedFactor="1.21" vaporized=""/>
    <tripinfo id="veh22" depart="16.00" departLane="-994066570_0" departPos="85.84" departSpeed="0.00" departDelay="0.16" arrival="211.00" arrivalLane="48736620#1_1" arrivalPos="60.01" arrivalSpeed="14.63" duration="195.00" routeLength="2313.62" waitingTime="0.00" waitingCount="0" stopTime="0.00" timeLoss="35.23" rerouteNo="0" devices="tripinfo_veh22" vType="passenger" speedFactor="1.12" vaporized=""/>
    <tripinfo id="veh12" depart="9.00" departLane="-1250915720#3_1" departPos="2.07" departSpeed="0.00" departDelay="0.36" arrival="214.00" arrivalLane="40236164_1" arrivalPos="161.97" arrivalSpeed="13.51" duration="205.00" routeLength="1603.26" waitingTime="34.00" waitingCount="2" stopTime="0.00" timeLoss="68.13" rerouteNo="0" devices="tripinfo_veh12" vType="emergency" speedFactor="1.00" vaporized=""/>
    <tripinfo id="veh13" depart="10.00" departLane="-647998060#1_1" departPos="31.15" departSpeed="0.00" departDelay="0.64" arrival="214.00" arrivalLane="40315648#0_2" arrivalPos="94.16" arrivalSpeed="13.92" duration="204.00" routeLength="2257.75" waitingTime="2.00" waitingCount="1" stopTime="0.00" timeLoss="39.78" rerouteNo="0" devices="tripinfo_veh13" vType="passenger" speedFactor="1.02" vaporized=""/>
    <tripinfo id="veh35" depart="26.00" departLane="-859729932_0" departPos="10.39" departSpeed="0.00" departDelay="0.80" arrival="220.00" arrivalLane="984521611#1_0" arrivalPos="22.34" arrivalSpeed="5.14" duration="194.00" routeLength="990.86" waitingTime="65.00" waitingCount="3" stopTime="0.00" timeLoss="91.17" rerouteNo="0" devices="tripinfo_veh35" vType="passenger" speedFactor="0.95" vaporized=""/>
    <tripinfo id="veh29" depart="21.00" departLane="-48798094#1_0" departPos="201.60" departSpeed="0.00" departDelay="0.12" arrival="222.00" arrivalLane="43547579#4_1" arrivalPos="247.27" arrivalSpeed="14.09" duration="201.00" routeLength="2598.44" waitingTime="0.00" waitingCount="0" stopTime="0.00" timeLoss="17.34" rerouteNo="0" devices="tripinfo_veh29" vType="passenger" speedFactor="1.03" vaporized=""/>
    <tripinfo id="veh115" depart="83.00" departLane="-647226815#1_1" departPos="36.38" departSpeed="0.00" departDelay="0.20" arrival="230.00" arrivalLane="40304754#5_1" arrivalPos="153.80" arrivalSpeed="9.54" duration="147.00" routeLength="1727.13" waitingTime="1.00" waitingCount="1" stopTime="0.00" timeLoss="28.25" rerouteNo="0" devices="tripinfo_veh115" vType="delivery" speedFactor="1.06" vaporized=""/>
    <tripinfo id="veh250" depart="180.00" departLane="-43544197#5_1" departPos="13.80" departSpeed="0.00" departDelay="0.00" arrival="230.00" arrivalLane="-43547017#0_1" arrivalPos="90.36" arrivalSpeed="13.96" duration="50.00" routeLength="575.30" waitingTime="0.00" waitingCount="0" stopTime="0.00" timeLoss="9.30" rerouteNo="0" devices="tripinfo_veh250" vType="passenger" speedFactor="1.06" vaporized=""/>
    <tripinfo id="veh39" depart="29.00" departLane="383582496_0" departPos="17.22" departSpeed="0.00" departDelay="0.92" arrival="231.00" arrivalLane="-43544179#7_1" arrivalPos="45.60" arrivalSpeed="13.69" duration="202.00" routeLength="1828.52" waitingTime="0.00" waitingCount="0" stopTime="0.00" timeLoss="30.59" rerouteNo="0" devices="tripinfo_veh39" vType="passenger" speedFactor="1.05" vaporized=""/>
    <tripinfo id="veh93" depart="67.00" departLane="43546570#0_1" departPos="32.23" departSpeed="0.00" departDelay="0.04" arrival="231.00" arrivalLane="-1136301819_1" arrivalPos="13.82" arrivalSpeed="10.83" duration="164.00" routeLength="1284.68" waitingTime="29.00" waitingCount="3" stopTime="0.00" timeLoss="77.57" rerouteNo="0" devices="tripinfo_veh93" vType="passenger" speedFactor="1.13" vaporized=""/>
    <tripinfo id="veh64" depart="47.00" departLane="48778475#0_1" departPos="21.54" departSpeed="0.00" departDelay="0.92" arrival="233.00" arrivalLane="647610982#0_1" arrivalPos="197.95" arrivalSpeed="13.49" duration="186.00" routeLength="1361.49" waitingTime="53.00" waitingCount="2" stopTime="0.00" timeLoss="86.47" rerouteNo="0" devices="tripinfo_veh64" vType="passenger" speedFactor="1.02" vaporized=""/>
    <tripinfo id="veh205" depart="148.00" departLane="-48778514#1_1" departPos="184.67" departSpeed="0.00" departDelay="0.40" arrival="233.00" arrivalLane="-222608880#1_1" arrivalPos="94.49" arrivalSpeed="13.45" duration="85.00" routeLength="982.67" waitingTime="0.00" waitingCount="0" stopTime="0.00" timeLoss="11.19" rerouteNo="0" devices="tripinfo_veh205" vType="delivery" speedFactor="0.98" vaporized=""/>
    <tripinfo id="veh17" depart="13.00" departLane="-40334244#1_1" departPos="73.44" departSpeed="0.00" departDelay="0.76" arrival="235.00" arrivalLane="-984521611#0_0" arrivalPos="6.06" arrivalSpeed="3.79" duration="222.00" routeLength="1887.41" waitingTime="19.00" waitingCount="3" stopTime="0.00" timeLoss="47.42" rerouteNo="0" devices="tripinfo_veh17" vType="passenger" speedFactor="0.87" vaporized=""/>
    <tripinfo id="veh149" depart="108.00" departLane="43546064#1_1" departPos="50.05" departSpeed="0.00" departDelay="0.72" arrival="236.00" arrivalLane="-647998063#1_1" arrivalPos="65.11" arrivalSpeed="11.98" duration="128.00" routeLength="1375.57" waitingTime="0.00" waitingCount="0" stopTime="0.00" timeLoss="13.46" rerouteNo="0" devices="tripinfo_veh149" vType="passenger" speedFactor="0.89" vaporized=""/>
    <tripinfo id="veh202" depart="146.00" departLane="-1136289990_1" departPos="13.88" departSpeed="0.00" departDelay="0.56" arrival="239.00" arrivalLane="43573547#7_1" arrivalPos="83.95" arrivalSpeed="13.60" duration="93.00" routeLength="1096.51" waitingTime="0.00" waitingCount="0" stopTime="0.00" timeLoss="14.73" rerouteNo="0" devices="tripinfo_veh202" vType="passenger" speedFactor="1.07" vaporized=""/>
    <tripinfo id="veh283" depart="204.00" departLane="-258551297#1_0" departPos="118.47" departSpeed="0.00" departDelay="0.24" arrival="239.00" arrivalLane="48736666#2_1" arrivalPos="56.15" arrivalSpeed="13.87" duration="35.00" routeLength="314.14" waitingTime="0.00" waitingCount="0" stopTime="0.00" timeLoss="7.71" rerouteNo="0" devices="tripinfo_veh283" vType="passenger" speedFactor="1.06" vaporized=""/>
    <tripinfo id="veh21" depart="16.00" departLane="43546519#0_1" departPos="131.25" departSpeed="0.00" departDelay="0.88" arrival="242.00" arrivalLane="1017995181_1" arrivalPos="15.20" arrivalSpeed="15.86" duration="226.00" routeLength="2430.19" waitingTime="36.00" waitingCount="3" stopTime="0.00" timeLoss="72.30" rerouteNo="0" devices="tripinfo_veh21" vType="passenger" speedFactor="1.15" vaporized=""/>
    <tripinfo id="veh132" depart="96.00" departLane="48736625_1" departPos="38.48" departSpeed="0.00" departDelay="0.96" arrival="242.00" arrivalLane="48798094#2_0" arrivalPos="169.95" arrivalSpeed="12.32" duration="146.00" routeLength="1574.30" waitingTime="9.00" waitingCount="1" stopTime="0.00" timeLoss="26.16" rerouteNo="0" devices="tripinfo_veh132" vType="passenger" speedFactor="0.97" vaporized=""/>
    <tripinfo id="veh254" depart="183.00" departLane="647347140#2_1" departPos="21.00" departSpeed="0.00" departDelay="0.12" arrival="242.00" arrivalLane="48778522_1" arrivalPos="21.75" arrivalSpeed="7.50" duration="59.00" routeLength="636.05" waitingTime="0.00" waitingCount="0" stopTime="0.00" timeLoss="8.96" rerouteNo="0" devices="tripinfo_veh254" vType="motorcycle" speedFactor="0.99" vaporized=""/>
    <tripinfo id="veh42" depart="31.00" departLane="-43544001#2_1" departPos="0.04" departSpeed="0.00" departDelay="0.76" arrival="243.00" arrivalLane="-E12.34_1" arrivalPos="55.77" arrivalSpeed="10.35" duration="212.00" routeLength="2251.80" waitingTime="0.00" waitingCount="0" stopTime="0.00" timeLoss="28.86" rerouteNo="0" devices="tripinfo_veh42" vType="motorcycle" speedFactor="0.90" vaporized=""/>
    <tripinfo id="veh127" depart="92.00" departLane="43544179#12_1" departPos="59.89" departSpeed="0.00" departDelay="0.56" arrival="243.00" arrivalLane="40236259_1" arrivalPos="166.86" arrivalSpeed="12.73" duration="151.00" routeLength="1735.89" waitingTime="0.00" waitingCount="0" stopTime="0.00" timeLoss="23.12" rerouteNo="0" devices="tripinfo_veh127" vType="delivery" speedFactor="1.00" vaporized=""/>
    <tripinfo id="veh119" depart="86.00" departLane="-1136289987_1" departPos="59.94" departSpeed="0.00" departDelay="0.32" arrival="244.00" arrivalLane="48788485#4_1" arrivalPos="201.27" arrivalSpeed="13.10" duration="158.00" routeLength="1119.08" waitingTime="49.00" waitingCount="1" stopTime="0.00" timeLoss="68.24" rerouteNo="0" devices="tripinfo_veh119" vType="passenger" speedFactor="0.97" vaporized=""/>
    <tripinfo id="veh90" depart="65.00" departLane="-43544197#8_1" departPos="113.64" departSpeed="0.00" departDelay="0.20" arrival="245.00" arrivalLane="-222605087#0_1" arrivalPos="20.52" arrivalSpeed="5.68" duration="180.00" routeLength="2237.00" waitingTime="0.00" waitingCount="0" stopTime="0.00" timeLoss="22.83" rerouteNo="0" devices="tripinfo_veh90" vType="passenger" speedFactor="1.10" vaporized=""/>
    <tripinfo id="veh38" depart="28.00" departLane="48736641_1" departPos="7.27" departSpeed="0.00" departDelay="0.64" arrival="247.00" arrivalLane="-143207979#0_1" arrivalPos="24.79" arrivalSpeed="15.34" duration="219.00" routeLength="2604.53" waitingTime="9.00" waitingCount="1" stopTime="0.00" timeLoss="53.22" rerouteNo="0" devices="tripinfo_veh38" vType="passenger" speedFactor="1.17" vaporized=""/>