<?xml version="1.0" encoding="UTF-8"?>

<!-- generated on 2025-06-15 22:40:38 by Eclipse SUMO sumo Version 1.22.0
<sumoConfiguration xmlns:xsi="http://www.w3.org/2001/XMLSchema-instance" xsi:noNamespaceSchemaLocation="http://sumo.dlr.de/xsd/sumoConfiguration.xsd">

    <input>
        <net-file value="E:/licenta/oras-mediu/2025-06-05-11-45-23\osm.net.xml"/>
        <route-files value="E:/licenta/oras-mediu/2025-06-05-11-45-23\full.rou.xml,E:/licenta/oras-mediu/2025-06-05-11-45-23\ ped.rou.xml,E:/licenta/oras-mediu/2025-06-05-11-45-23\ truck.rou.xml"/>
        <additional-files value="E:/licenta/oras-mediu/2025-06-05-11-45-23\osm.poly.xml,E:/licenta/oras-mediu/2025-06-05-11-45-23\ vtypes.xml"/>
    </input>

    <output>
        <summary-output value="E:/licenta/oras-mediu/2025-06-05-11-45-23\summary.xml"/>
        <tripinfo-output value="evaluation_run_outputs\baseline_outputs\tripinfo_baseline_ep21.xml"/>
    </output>

    <processing>
        <ignore-route-errors value="true"/>
        <tls.actuated.jam-threshold value="30"/>
    </processing>

    <routing>
        <device.rerouting.adaptation-steps value="18"/>
        <device.rerouting.adaptation-interval value="10"/>
    </routing>

    <report>
        <verbose value="true"/>
        <duration-log.statistics value="true"/>
        <no-step-log value="true"/>
    </report>

    <gui_only>
        <gui-settings-file value="E:/licenta/oras-mediu/2025-06-05-11-45-23\osm.view.xml"/>
    </gui_only>

</sumoConfiguration>
-->

<tripinfos xmlns:xsi="http://www.w3.org/2001/XMLSchema-instance" xsi:noNamespaceSchemaLocation="http://sumo.dlr.de/xsd/tripinfo_file.xsd">
    <tripinfo id="veh47" depart="20.00" departLane="-48778510#1_1" departPos="9.47" departSpeed="0.00" departDelay="0.73" arrival="74.00" arrivalLane="48778487#1_1" arrivalPos="345.27" arrivalSpeed="13.30" duration="54.00" routeLength="574.27" waitingTime="0.00" waitingCount="0" stopTime="0.00" timeLoss="9.96" rerouteNo="0" devices="tripinfo_veh47" vType="passenger" speedFactor="1.00" vaporized=""/>
    <tripinfo id="veh202" depart="83.00" departLane="-48736610#3_1" departPos="36.24" departSpeed="0.00" departDelay="0.18" arrival="110.00" arrivalLane="48736624#3_1" arrivalPos="19.82" arrivalSpeed="11.08" duration="27.00" routeLength="256.89" waitingTime="0.00" waitingCount="0" stopTime="0.00" timeLoss="5.26" rerouteNo="0" devices="tripinfo_veh202" vType="passenger" speedFactor="0.93" vaporized=""/>
    <tripinfo id="veh40" depart="17.00" departLane="48797766#1_1" departPos="1.48" departSpeed="0.00" departDelay="0.60" arrival="111.00" arrivalLane="48778443#1_1" arrivalPos="92.66" arrivalSpeed="13.26" duration="94.00" routeLength="917.36" waitingTime="0.00" waitingCount="0" stopTime="0.00" timeLoss="27.26" rerouteNo="0" devices="tripinfo_veh40" vType="passenger" speedFactor="1.05" vaporized=""/>
    <tripinfo id="veh85" depart="35.00" departLane="258551281_1" departPos="26.70" departSpeed="0.00" departDelay="0.15" arrival="114.00" arrivalLane="647741479_1" arrivalPos="102.89" arrivalSpeed="13.05" duration="79.00" routeLength="903.19" waitingTime="0.00" waitingCount="0" stopTime="0.00" timeLoss="10.28" rerouteNo="0" devices="tripinfo_veh85" vType="passenger" speedFactor="0.98" vaporized=""/>
    <tripinfo id="veh91" depart="38.00" departLane="1135854143_1" departPos="20.09" departSpeed="0.00" departDelay="0.69" arrival="115.00" arrivalLane="984521613_0" arrivalPos="62.42" arrivalSpeed="5.33" duration="77.00" routeLength="598.03" waitingTime="2.00" waitingCount="1" stopTime="0.00" timeLoss="19.93" rerouteNo="0" devices="tripinfo_veh91" vType="passenger" speedFactor="0.97" vaporized=""/>
    <tripinfo id="veh68" depart="28.00" departLane="-25379984#2_2" departPos="89.49" departSpeed="0.00" departDelay="0.12" arrival="116.00" arrivalLane="-258551281_1" arrivalPos="67.94" arrivalSpeed="13.40" duration="88.00" routeLength="644.81" waitingTime="18.00" waitingCount="2" stopTime="0.00" timeLoss="36.97" rerouteNo="0" devices="tripinfo_veh68" vType="passenger" speedFactor="0.98" vaporized=""/>
    <tripinfo id="veh67" depart="28.00" departLane="E23_2" departPos="0.21" departSpeed="0.00" departDelay="0.53" arrival="117.00" arrivalLane="1136279388_0" arrivalPos="33.51" arrivalSpeed="4.89" duration="89.00" routeLength="737.32" waitingTime="13.00" waitingCount="1" stopTime="0.00" timeLoss="33.75" rerouteNo="0" devices="tripinfo_veh67" vType="passenger" speedFactor="1.08" vaporized=""/>
    <tripinfo id="veh82" depart="34.00" departLane="40299739#0_1" departPos="43.16" departSpeed="0.00" departDelay="0.38" arrival="119.00" arrivalLane="-48736638#2_1" arrivalPos="32.61" arrivalSpeed="12.27" duration="85.00" routeLength="855.62" waitingTime="0.00" waitingCount="0" stopTime="0.00" timeLoss="13.50" rerouteNo="0" devices="tripinfo_veh82" vType="passenger" speedFactor="0.89" vaporized=""/>
    <tripinfo id="veh50" depart="21.00" departLane="43546506#0_1" departPos="260.13" departSpeed="0.00" departDelay="0.50" arrival="120.00" arrivalLane="-43573547#5_1" arrivalPos="56.54" arrivalSpeed="13.58" duration="99.00" routeLength="1138.03" waitingTime="0.00" waitingCount="0" stopTime="0.00" timeLoss="14.39" rerouteNo="0" devices="tripinfo_veh50" vType="delivery" speedFactor="0.99" vaporized=""/>
    <tripinfo id="veh46" depart="19.00" departLane="289113778#0_1" departPos="44.07" departSpeed="0.00" departDelay="0.14" arrival="121.00" arrivalLane="-383582506_0" arrivalPos="44.83" arrivalSpeed="4.45" duration="102.00" routeLength="1029.01" waitingTime="0.00" waitingCount="0" stopTime="0.00" timeLoss="19.09" rerouteNo="0" devices="tripinfo_veh46" vType="passenger" speedFactor="1.02" vaporized=""/>
    <tripinfo id="veh77" depart="32.00" departLane="-945794109_1" departPos="7.00" departSpeed="0.00" departDelay="0.43" arrival="123.00" arrivalLane="222605084#0_1" arrivalPos="0.21" arrivalSpeed="6.31" duration="91.00" routeLength="1050.58" waitingTime="0.00" waitingCount="0" stopTime="0.00" timeLoss="12.38" rerouteNo="0" devices="tripinfo_veh77" vType="passenger" speedFactor="1.14" vaporized=""/>
    <tripinfo id="veh104" depart="43.00" departLane="-48778503#1_1" departPos="0.92" departSpeed="0.00" departDelay="0.36" arrival="123.00" arrivalLane="258551321_1" arrivalPos="124.63" arrivalSpeed="14.50" duration="80.00" routeLength="1023.93" waitingTime="0.00" waitingCount="0" stopTime="0.00" timeLoss="11.48" rerouteNo="0" devices="tripinfo_veh104" vType="motorcycle" speedFactor="1.10" vaporized=""/>
    <tripinfo id="veh55" depart="23.00" departLane="-1250915726_1" departPos="41.36" departSpeed="0.00" departDelay="0.45" arrival="125.00" arrivalLane="-222605084#9_1" arrivalPos="2.21" arrivalSpeed="4.11" duration="102.00" routeLength="473.51" waitingTime="0.00" waitingCount="0" stopTime="0.00" timeLoss="13.29" rerouteNo="0" devices="tripinfo_veh55" vType="delivery" speedFactor="0.96" vaporized=""/>
    <tripinfo id="veh100" depart="41.00" departLane="1136279381_1" departPos="56.61" departSpeed="0.00" departDelay="0.00" arrival="129.00" arrivalLane="-48736656#0_1" arrivalPos="72.44" arrivalSpeed="11.20" duration="88.00" routeLength="746.37" waitingTime="6.00" waitingCount="1" stopTime="0.00" timeLoss="22.47" rerouteNo="0" devices="tripinfo_veh100" vType="passenger" speedFactor="0.89" vaporized=""/>
    <tripinfo id="veh20" depart="9.00" departLane="48778480#0_2" departPos="49.25" departSpeed="0.00" departDelay="0.80" arrival="131.00" arrivalLane="48778508#1_1" arrivalPos="98.38" arrivalSpeed="12.26" duration="122.00" routeLength="1278.58" waitingTime="0.00" waitingCount="0" stopTime="0.00" timeLoss="15.43" rerouteNo="0" devices="tripinfo_veh20" vType="passenger" speedFactor="0.89" vaporized=""/>
    <tripinfo id="veh132" depart="55.00" departLane="40236203#1_1" departPos="18.34" departSpeed="0.00" departDelay="0.88" arrival="136.00" arrivalLane="1136301811_1" arrivalPos="31.32" arrivalSpeed="8.58" duration="81.00" routeLength="854.45" waitingTime="0.00" waitingCount="0" stopTime="0.00" timeLoss="20.34" rerouteNo="0" devices="tripinfo_veh132" vType="passenger" speedFactor="1.13" vaporized=""/>
    <tripinfo id="veh165" depart="68.00" departLane="-43546935#3_1" departPos="2.19" departSpeed="0.00" departDelay="0.35" arrival="138.00" arrivalLane="647226815#0_1" arrivalPos="44.36" arrivalSpeed="13.80" duration="70.00" routeLength="757.59" waitingTime="0.00" waitingCount="0" stopTime="0.00" timeLoss="16.39" rerouteNo="0" devices="tripinfo_veh165" vType="passenger" speedFactor="1.07" vaporized=""/>
    <tripinfo id="veh66" depart="28.00" departLane="-33909936#0_1" departPos="7.52" departSpeed="0.00" departDelay="0.94" arrival="142.00" arrivalLane="-48778502#1_1" arrivalPos="195.25" arrivalSpeed="12.98" duration="114.00" routeLength="1343.82" waitingTime="0.00" waitingCount="0" stopTime="0.00" timeLoss="16.49" rerouteNo="0" devices="tripinfo_veh66" vType="passenger" speedFactor="1.02" vaporized=""/>
    <tripinfo id="veh116" depart="48.00" departLane="-671642324_1" departPos="46.45" departSpeed="0.00" departDelay="0.44" arrival="144.00" arrivalLane="48778494#1_1" arrivalPos="15.92" arrivalSpeed="16.80" duration="96.00" routeLength="671.53" waitingTime="22.00" waitingCount="2" stopTime="0.00" timeLoss="53.67" rerouteNo="0" devices="tripinfo_veh116" vType="passenger" speedFactor="1.21" vaporized=""/>
    <tripinfo id="veh74" depart="31.00" departLane="40266909#0_1" departPos="8.94" departSpeed="0.00" departDelay="0.66" arrival="145.00" arrivalLane="-48778495#0_1" arrivalPos="107.63" arrivalSpeed="8.34" duration="114.00" routeLength="1236.90" waitingTime="0.00" waitingCount="0" stopTime="0.00" timeLoss="18.72" rerouteNo="0" devices="tripinfo_veh74" vType="passenger" speedFactor="1.06" vaporized=""/>
    <tripinfo id="veh38" depart="16.00" departLane="996489799#2_0" departPos="21.10" departSpeed="0.00" departDelay="0.42" arrival="147.00" arrivalLane="-48778485#0_1" arrivalPos="25.13" arrivalSpeed="11.85" duration="131.00" routeLength="1308.71" waitingTime="0.00" waitingCount="0" stopTime="0.00" timeLoss="28.98" rerouteNo="0" devices="tripinfo_veh38" vType="passenger" speedFactor="1.06" vaporized=""/>
    <tripinfo id="veh295" depart="121.00" departLane="-48736612#3_1" departPos="24.38" departSpeed="0.00" departDelay="0.05" arrival="151.00" arrivalLane="48736655_1" arrivalPos="17.43" arrivalSpeed="9.31" duration="30.00" routeLength="236.43" waitingTime="0.00" waitingCount="0" stopTime="0.00" timeLoss="9.03" rerouteNo="0" devices="tripinfo_veh295" vType="passenger" speedFactor="0.90" vaporized=""/>
    <tripinfo id="veh12" depart="5.00" departLane="48736643_1" departPos="50.16" departSpeed="0.00" departDelay="0.08" arrival="152.00" arrivalLane="48778478#2_1" arrivalPos="30.02" arrivalSpeed="12.67" duration="147.00" routeLength="1238.60" waitingTime="16.00" waitingCount="1" stopTime="0.00" timeLoss="50.80" rerouteNo="0" devices="tripinfo_veh12" vType="emergency" speedFactor="1.00" vaporized=""/>
    <tripinfo id="veh16" depart="7.00" departLane="40314583#3_1" departPos="27.26" departSpeed="0.00" departDelay="0.44" arrival="152.00" arrivalLane="-1135854143_1" arrivalPos="57.62" arrivalSpeed="7.96" duration="145.00" routeLength="1396.88" waitingTime="11.00" waitingCount="1" stopTime="0.00" timeLoss="38.55" rerouteNo="0" devices="tripinfo_veh16" vType="passenger" speedFactor="1.01" vaporized=""/>
    <tripinfo id="veh43" depart="18.00" departLane="48736625_1" departPos="30.13" departSpeed="0.00" departDelay="0.37" arrival="152.00" arrivalLane="-353939574_0" arrivalPos="189.91" arrivalSpeed="5.99" duration="134.00" routeLength="723.13" waitingTime="0.00" waitingCount="0" stopTime="0.00" timeLoss="15.75" rerouteNo="0" devices="tripinfo_veh43" vType="bicycle" speedFactor="1.10" vaporized=""/>
    <tripinfo id="veh217" depart="89.00" departLane="-48778503#0_1" departPos="23.47" departSpeed="0.00" departDelay="0.03" arrival="154.00" arrivalLane="-945794111_1" arrivalPos="62.47" arrivalSpeed="8.32" duration="65.00" routeLength="732.33" waitingTime="0.00" waitingCount="0" stopTime="0.00" timeLoss="14.20" rerouteNo="0" devices="tripinfo_veh217" vType="delivery" speedFactor="1.13" vaporized=""/>
    <tripinfo id="veh205" depart="85.00" departLane="-48778479_1" departPos="156.99" departSpeed="0.00" departDelay="0.95" arrival="156.00" arrivalLane="289113877#0_1" arrivalPos="318.67" arrivalSpeed="10.47" duration="71.00" routeLength="643.54" waitingTime="0.00" waitingCount="0" stopTime="0.00" timeLoss="10.16" rerouteNo="0" devices="tripinfo_veh205" vType="passenger" speedFactor="0.80" vaporized=""/>
    <tripinfo id="veh19" depart="8.00" departLane="-1136289987_1" departPos="2.22" departSpeed="0.00" departDelay="0.21" arrival="157.00" arrivalLane="984508803_0" arrivalPos="20.97" arrivalSpeed="5.56" duration="149.00" routeLength="1298.89" waitingTime="28.00" waitingCount="1" stopTime="0.00" timeLoss="55.93" rerouteNo="0" devices="tripinfo_veh19" vType="passenger" speedFactor="1.13" vaporized=""/>
    <tripinfo id="veh92" depart="38.00" departLane="-222605087#1_1" departPos="6.84" departSpeed="0.00" departDelay="0.28" arrival="157.00" arrivalLane="-40330557#0_1" arrivalPos="52.98" arrivalSpeed="6.24" duration="119.00" routeLength="680.60" waitingTime="1.00" waitingCount="1" stopTime="0.00" timeLoss="14.63" rerouteNo="0" devices="tripinfo_veh92" vType="bicycle" speedFactor="1.18" vaporized=""/>
    <tripinfo id="veh240" depart="99.00" departLane="1250915720#1_1" departPos="0.15" departSpeed="0.00" departDelay="0.60" arrival="165.00" arrivalLane="-996984235_0" arrivalPos="15.63" arrivalSpeed="5.40" duration="66.00" routeLength="347.78" waitingTime="1.00" waitingCount="1" stopTime="0.00" timeLoss="16.26" rerouteNo="0" devices="tripinfo_veh240" vType="passenger" speedFactor="0.98" vaporized=""/>
    <tripinfo id="veh233" depart="96.00" departLane="43544179#11_1" departPos="34.33" departSpeed="0.00" departDelay="0.47" arrival="169.00" arrivalLane="48778514#1_1" arrivalPos="264.87" arrivalSpeed="11.56" duration="73.00" routeLength="769.62" waitingTime="0.00" waitingCount="0" stopTime="0.00" timeLoss="12.03" rerouteNo="0" devices="tripinfo_veh233" vType="motorcycle" speedFactor="0.94" vaporized=""/>
    <tripinfo id="veh39" depart="16.00" departLane="-48736647#1_1" departPos="30.64" departSpeed="0.00" departDelay="0.01" arrival="170.00" arrivalLane="48778481#8_2" arrivalPos="12.21" arrivalSpeed="13.02" duration="154.00" routeLength="1629.99" waitingTime="9.00" waitingCount="1" stopTime="0.00" timeLoss="47.69" rerouteNo="0" devices="tripinfo_veh39" vType="passenger" speedFactor="1.17" vaporized=""/>
    <tripinfo id="veh250" depart="103.00" departLane="48797765#2_1" departPos="7.33" departSpeed="0.00" departDelay="0.50" arrival="170.00" arrivalLane="48797768_1" arrivalPos="94.07" arrivalSpeed="12.89" duration="67.00" routeLength="487.57" waitingTime="2.00" waitingCount="1" stopTime="0.00" timeLoss="19.00" rerouteNo="0" devices="tripinfo_veh250" vType="passenger" speedFactor="1.02" vaporized=""/>
    <tripinfo id="veh7" depart="3.00" departLane="-40236259_1" departPos="1.01" departSpeed="0.00" departDelay="0.13" arrival="171.00" arrivalLane="-1250915720#6_1" arrivalPos="63.36" arrivalSpeed="5.65" duration="168.00" routeLength="1434.74" waitingTime="25.00" waitingCount="3" stopTime="0.00" timeLoss="66.06" rerouteNo="0" devices="tripinfo_veh7" vType="passenger" speedFactor="1.12" vaporized=""/>
    <tripinfo id="veh284" depart="117.00" departLane="-984521611#1_0" departPos="14.79" departSpeed="0.00" departDelay="0.56" arrival="172.00" arrivalLane="-250295383#4_1" arrivalPos="24.36" arrivalSpeed="13.54" duration="55.00" routeLength="377.10" waitingTime="1.00" waitingCount="1" stopTime="0.00" timeLoss="14.85" rerouteNo="0" devices="tripinfo_veh284" vType="passenger" speedFactor="1.05" vaporized=""/>
    <tripinfo id="veh152" depart="63.00" departLane="-40265775#0_1" departPos="66.35" departSpeed="0.00" departDelay="0.68" arrival="173.00" arrivalLane="647262856_1" arrivalPos="411.78" arrivalSpeed="14.37" duration="110.00" routeLength="1367.74" waitingTime="0.00" waitingCount="0" stopTime="0.00" timeLoss="14.51" rerouteNo="0" devices="tripinfo_veh152" vType="passenger" speedFactor="1.07" vaporized=""/>
    <tripinfo id="veh90" depart="37.00" departLane="-40266620_1" departPos="11.88" departSpeed="0.00" departDelay="0.10" arrival="181.00" arrivalLane="-250295383#4_1" arrivalPos="24.36" arrivalSpeed="15.06" duration="144.00" routeLength="1045.57" waitingTime="52.00" waitingCount="1" stopTime="0.00" timeLoss="71.95" rerouteNo="0" devices="tripinfo_veh90" vType="passenger" speedFactor="1.10" vaporized=""/>
    <tripinfo id="veh71" depart="30.00" departLane="40314583#7_1" departPos="20.57" departSpeed="0.00" departDelay="0.89" arrival="184.00" arrivalLane="1135854210_1" arrivalPos="13.11" arrivalSpeed="4.77" duration="154.00" routeLength="1377.92" waitingTime="15.00" waitingCount="2" stopTime="0.00" timeLoss="43.37" rerouteNo="0" devices="tripinfo_veh71" vType="motorcycle" speedFactor="0.94" vaporized=""/>
    <personinfo id="ped11" depart="55.00" type="DEFAULT_PEDTYPE" speedFactor="0.94" duration="131.00" waitingTime="0.00" timeLoss="11.74" traveltime="131.00">
        <walk depart="55.00" departPos="0.00" arrival="186.00" arrivalPos="108.66" duration="131.00" routeLength="154.87" timeLoss="11.74" maxSpeed="1.30"/>
    </personinfo>
    <tripinfo id="veh133" depart="55.00" departLane="48736667_1" departPos="85.46" departSpeed="0.00" departDelay="0.47" arrival="187.00" arrivalLane="383582854#0_0" arrivalPos="13.10" arrivalSpeed="5.03" duration="132.00" routeLength="1410.03" waitingTime="0.00" waitingCount="0" stopTime="0.00" timeLoss="21.02" rerouteNo="0" devices="tripinfo_veh133" vType="passenger" speedFactor="0.98" vaporized=""/>
    <tripinfo id="veh87" depart="36.00" departLane="945794110_1" departPos="56.60" departSpeed="0.00" departDelay="0.33" arrival="188.00" arrivalLane="-258551281_1" arrivalPos="67.94" arrivalSpeed="17.19" duration="152.00" routeLength="1924.17" waitingTime="13.00" waitingCount="1" stopTime="0.00" timeLoss="37.76" rerouteNo="0" devices="tripinfo_veh87" vType="passenger" speedFactor="1.25" vaporized=""/>
    <tripinfo id="veh225" depart="93.00" departLane="-43546789#3_1" departPos="74.44" departSpeed="0.00" departDelay="0.75" arrival="188.00" arrivalLane="984521613_0" arrivalPos="62.42" arrivalSpeed="4.58" duration="95.00" routeLength="942.89" waitingTime="0.00" waitingCount="0" stopTime="0.00" timeLoss="13.27" rerouteNo="0" devices="tripinfo_veh225" vType="passenger" speedFactor="0.95" vaporized=""/>
    <tripinfo id="veh138" depart="57.00" departLane="223883703_0" departPos="17.12" departSpeed="0.00" departDelay="0.42" arrival="193.00" arrivalLane="945793490#4_1" arrivalPos="51.67" arrivalSpeed="4.69" duration="136.00" routeLength="1054.34" waitingTime="3.00" waitingCount="1" stopTime="0.00" timeLoss="21.08" rerouteNo="0" devices="tripinfo_veh138" vType="passenger" speedFactor="0.96" vaporized=""/>
    <tripinfo id="veh218" depart="90.00" departLane="-48778514#2_1" departPos="118.84" departSpeed="0.00" departDelay="0.62" arrival="193.00" arrivalLane="354259933#2_1" arrivalPos="84.82" arrivalSpeed="10.09" duration="103.00" routeLength="1110.30" waitingTime="0.00" waitingCount="0" stopTime="0.00" timeLoss="14.80" rerouteNo="0" devices="tripinfo_veh218" vType="motorcycle" speedFactor="0.93" vaporized=""/>
    <tripinfo id="veh11" depart="5.00" departLane="43544001#11_1" departPos="2.98" departSpeed="0.00" departDelay="0.49" arrival="198.00" arrivalLane="-578560104#5_1" arrivalPos="72.53" arrivalSpeed="12.83" duration="193.00" routeLength="2123.92" waitingTime="3.00" waitingCount="1" stopTime="0.00" timeLoss="30.89" rerouteNo="0" devices="tripinfo_veh11" vType="delivery" speedFactor="0.97" vaporized=""/>
    <tripinfo id="veh78" depart="32.00" departLane="-48778493#0_1" departPos="1.63" departSpeed="0.00" departDelay="0.02" arrival="198.00" arrivalLane="-422283114_0" arrivalPos="185.51" arrivalSpeed="5.88" duration="166.00" routeLength="1763.25" waitingTime="4.00" waitingCount="1" stopTime="0.00" timeLoss="27.20" rerouteNo="0" devices="tripinfo_veh78" vType="passenger" speedFactor="1.10" vaporized=""/>
    <tripinfo id="veh180" depart="74.00" departLane="-1135856746#0_1" departPos="8.72" departSpeed="0.00" departDelay="0.20" arrival="198.00" arrivalLane="-401741889#0_1" arrivalPos="387.33" arrivalSpeed="12.17" duration="124.00" routeLength="980.18" waitingTime="32.00" waitingCount="1" stopTime="0.00" timeLoss="43.72" rerouteNo="0" devices="tripinfo_veh180" vType="passenger" speedFactor="0.91" vaporized=""/>
    <tripinfo id="veh27" depart="12.00" departLane="-43544001#6_1" departPos="9.25" departSpeed="0.00" departDelay="0.93" arrival="201.00" arrivalLane="-33909936#0_1" arrivalPos="22.20" arrivalSpeed="12.51" duration="189.00" routeLength="2138.79" waitingTime="2.00" waitingCount="1" stopTime="0.00" timeLoss="33.58" rerouteNo="0" devices="tripinfo_veh27" vType="motorcycle" speedFactor="1.02" vaporized=""/>
    <tripinfo id="veh384" depart="158.00" departLane="48778480#4_1" departPos="10.74" departSpeed="0.00" departDelay="0.56" arrival="201.00" arrivalLane="40236164_1" arrivalPos="161.97" arrivalSpeed="11.02" duration="43.00" routeLength="430.28" waitingTime="0.00" waitingCount="0" stopTime="0.00" timeLoss="8.83" rerouteNo="0" devices="tripinfo_veh384" vType="motorcycle" speedFactor="0.99" vaporized=""/>
    <tripinfo id="veh140" depart="58.00" departLane="1136279385_1" departPos="14.41" departSpeed="0.00" departDelay="0.60" arrival="202.00" arrivalLane="48736620#0_1" arrivalPos="29.26" arrivalSpeed="5.65" duration="144.00" routeLength="636.55" waitingTime="18.00" waitingCount="2" stopTime="0.00" timeLoss="38.65" rerouteNo="0" devices="tripinfo_veh140" vType="bicycle" speedFactor="1.09" vaporized=""/>
    <tripinfo id="veh4" depart="2.00" departLane="647755347#1_1" departPos="26.00" departSpeed="0.00" departDelay="0.36" arrival="203.00" arrivalLane="48736610#3_1" arrivalPos="39.72" arrivalSpeed="13.20" duration="201.00" routeLength="1668.14" waitingTime="37.00" waitingCount="2" stopTime="0.00" timeLoss="77.56" rerouteNo="0" devices="tripinfo_veh4" vType="passenger" speedFactor="1.02" vaporized=""/>
    <tripinfo id="veh10" depart="5.00" departLane="-48778446#0_1" departPos="15.03" departSpeed="0.00" departDelay="0.90" arrival="203.00" arrivalLane="-174818022#0_0" arrivalPos="26.26" arrivalSpeed="5.38" duration="198.00" routeLength="1039.01" waitingTime="71.00" waitingCount="2" stopTime="0.00" timeLoss="95.79" rerouteNo="0" devices="tripinfo_veh10" vType="passenger" speedFactor="1.04" vaporized=""/>
    <tripinfo id="veh0" depart="0.00" departLane="33909936#2_1" departPos="53.16" departSpeed="0.00" departDelay="0.00" arrival="208.00" arrivalLane="-33913538#6_2" arrivalPos="41.80" arrivalSpeed="12.53" duration="208.00" routeLength="2320.84" waitingTime="0.00" waitingCount="0" stopTime="0.00" timeLoss="33.77" rerouteNo="0" devices="tripinfo_veh0" vType="motorcycle" speedFactor="0.98" vaporized=""/>
    <tripinfo id="veh53" depart="22.00" departLane="40299241#2_1" departPos="67.38" departSpeed="0.00" departDelay="0.27" arrival="208.00" arrivalLane="-222605084#9_1" arrivalPos="2.21" arrivalSpeed="4.00" duration="186.00" routeLength="1724.17" waitingTime="0.00" waitingCount="0" stopTime="0.00" timeLoss="27.59" rerouteNo="0" devices="tripinfo_veh53" vType="passenger" speedFactor="0.95" vaporized=""/>
    <tripinfo id="veh113" depart="47.00" departLane="1137794254_2" departPos="11.50" departSpeed="0.00" departDelay="0.67" arrival="208.00" arrivalLane="-43546105#3_1" arrivalPos="36.33" arrivalSpeed="13.88" duration="161.00" routeLength="1259.09" waitingTime="13.00" waitingCount="1" stopTime="0.00" timeLoss="77.80" rerouteNo="0" devices="tripinfo_veh113" vType="passenger" speedFactor="1.11" vaporized=""/>
    <tripinfo id="veh408" depart="168.00" departLane="859738688_0" departPos="165.73" departSpeed="0.00" departDelay="0.72" arrival="208.00" arrivalLane="48736655_1" arrivalPos="17.43" arrivalSpeed="12.52" duration="40.00" routeLength="322.42" waitingTime="2.00" waitingCount="1" stopTime="0.00" timeLoss="12.87" rerouteNo="0" devices="tripinfo_veh408" vType="motorcycle" speedFactor="1.14" vaporized=""/>
    <tripinfo id="veh49" depart="21.00" departLane="48778441#3_1" departPos="49.52" departSpeed="0.00" departDelay="0.91" arrival="210.00" arrivalLane="40314876_1" arrivalPos="38.09" arrivalSpeed="5.41" duration="189.00" routeLength="943.68" waitingTime="0.00" waitingCount="0" stopTime="0.00" timeLoss="17.91" rerouteNo="0" devices="tripinfo_veh49" vType="bicycle" speedFactor="1.00" vaporized=""/>
    <tripinfo id="veh29" depart="12.00" departLane="250295513_1" departPos="3.92" departSpeed="0.00" departDelay="0.11" arrival="214.00" arrivalLane="-258551284#1_1" arrivalPos="135.26" arrivalSpeed="14.40" duration="202.00" routeLength="2046.46" waitingTime="28.00" waitingCount="1" stopTime="0.00" timeLoss="63.20" rerouteNo="0" devices="tripinfo_veh29" vType="passenger" speedFactor="1.10" vaporized=""/>
    <tripinfo id="veh5" depart="3.00" departLane="-1136301818_1" departPos="18.78" departSpeed="0.00" departDelay="0.95" arrival="215.00" arrivalLane="-945794110_1" arrivalPos="52.39" arrivalSpeed="8.43" duration="212.00" routeLength="1869.64" waitingTime="40.00" waitingCount="1" stopTime="0.00" timeLoss="73.02" rerouteNo="0" devices="tripinfo_veh5" vType="delivery" speedFactor="1.05" vaporized=""/>
    <tripinfo id="veh465" depart="191.00" departLane="-43547017#4_1" departPos="5.41" departSpeed="0.00" departDelay="0.35" arrival="215.00" arrivalLane="48778511_1" arrivalPos="75.86" arrivalSpeed="15.01" duration="24.00" routeLength="205.40" waitingTime="0.00" waitingCount="0" stopTime="0.00" timeLoss="8.43" rerouteNo="0" devices="tripinfo_veh465" vType="passenger" speedFactor="1.09" vaporized=""/>
    <tripinfo id="veh59" depart="25.00" departLane="-671642318#1_1" departPos="18.27" departSpeed="0.00" departDelay="0.81" arrival="217.00" arrivalLane="43546648#5_1" arrivalPos="18.50" arrivalSpeed="11.60" duration="192.00" routeLength="2340.37" waitingTime="0.00" waitingCount="0" stopTime="0.00" timeLoss="24.34" rerouteNo="0" devices="tripinfo_veh59" vType="passenger" speedFactor="1.03" vaporized=""/>
    <tripinfo id="veh61" depart="26.00" departLane="-43547580_1" departPos="51.46" departSpeed="0.00" departDelay="0.99" arrival="217.00" arrivalLane="48778429#1_1" arrivalPos="67.29" arrivalSpeed="12.03" duration="191.00" routeLength="1781.54" waitingTime="26.00" waitingCount="1" stopTime="0.00" timeLoss="47.82" rerouteNo="0" devices="tripinfo_veh61" vType="passenger" speedFactor="0.92" vaporized=""/>
    <tripinfo id="veh269" depart="111.00" departLane="-996486454#1_1" departPos="49.16" departSpeed="0.00" departDelay="0.71" arrival="217.00" arrivalLane="48778511_1" arrivalPos="75.86" arrivalSpeed="13.98" duration="106.00" routeLength="958.05" waitingTime="6.00" waitingCount="2" stopTime="0.00" timeLoss="35.51" rerouteNo="0" devices="tripinfo_veh269" vType="passenger" speedFactor="1.02" vaporized=""/>
    <tripinfo id="veh175" depart="72.00" departLane="-40314583#1_1" departPos="64.42" departSpeed="0.00" departDelay="0.25" arrival="218.00" arrivalLane="48736650#2_1" arrivalPos="16.21" arrivalSpeed="9.05" duration="146.00" routeLength="1131.47" waitingTime="9.00" waitingCount="1" stopTime="0.00" timeLoss="40.31" rerouteNo="0" devices="tripinfo_veh175" vType="passenger" speedFactor="0.96" vaporized=""/>
    <tripinfo id="veh236" depart="97.00" departLane="48778498#1_1" departPos="11.76" departSpeed="0.00" departDelay="0.24" arrival="219.00" arrivalLane="-40334245#2_1" arrivalPos="3.64" arrivalSpeed="7.08" duration="122.00" routeLength="1457.09" waitingTime="0.00" waitingCount="0" stopTime="0.00" timeLoss="26.47" rerouteNo="0" devices="tripinfo_veh236" vType="passenger" speedFactor="1.14" vaporized=""/>
    <personinfo id="ped2" depart="10.00" type="DEFAULT_PEDTYPE" speedFactor="0.96" duration="213.00" waitingTime="0.00" timeLoss="54.38" traveltime="213.00">
        <walk depart="10.00" departPos="0.00" arrival="223.00" arrivalPos="38.60" duration="213.00" routeLength="211.92" timeLoss="54.38" maxSpeed="1.34"/>
    </personinfo>
    <tripinfo id="veh230" depart="95.00" departLane="43546793_1" departPos="56.34" departSpeed="0.00" departDelay="0.70" arrival="224.00" arrivalLane="1205541343#0_1" arrivalPos="29.20" arrivalSpeed="5.12" duration="129.00" routeLength="1397.68" waitingTime="0.00" waitingCount="0" stopTime="0.00" timeLoss="18.52" rerouteNo="0" devices="tripinfo_veh230" vType="passenger" speedFactor="0.98" vaporized=""/>
    <tripinfo id="veh308" depart="127.00" departLane="353939574_0" departPos="33.12" departSpeed="0.00" departDelay="0.72" arrival="226.00" arrivalLane="43548506_1" arrivalPos="109.50" arrivalSpeed="14.75" duration="99.00" routeLength="993.77" waitingTime="0.00" waitingCount="0" stopTime="0.00" timeLoss="13.98" rerouteNo="0" devices="tripinfo_veh308" vType="passenger" speedFactor="1.07" vaporized=""/>
    <tripinfo id="veh137" depart="57.00" departLane="-1136289989_1" departPos="11.52" departSpeed="0.00" departDelay="0.83" arrival="227.00" arrivalLane="33909936#1_1" arrivalPos="134.25" arrivalSpeed="13.62" duration="170.00" routeLength="1412.50" waitingTime="38.00" waitingCount="2" stopTime="0.00" timeLoss="67.77" rerouteNo="0" devices="tripinfo_veh137" vType="passenger" speedFactor="1.06" vaporized=""/>
    <tripinfo id="veh142" depart="59.00" departLane="67712683_1" departPos="60.48" departSpeed="0.00" departDelay="0.78" arrival="227.00" arrivalLane="671386628#1_1" arrivalPos="211.01" arrivalSpeed="13.94" duration="168.00" routeLength="1851.78" waitingTime="0.00" waitingCount="0" stopTime="0.00" timeLoss="37.70" rerouteNo="0" devices="tripinfo_veh142" vType="motorcycle" speedFactor="1.08" vaporized=""/>