<?xml version="1.0" encoding="UTF-8"?>

<!-- generated on 2025-06-15 22:29:32 by Eclipse SUMO sumo Version 1.22.0
<sumoConfiguration xmlns:xsi="http://www.w3.org/2001/XMLSchema-instance" xsi:noNamespaceSchemaLocation="http://sumo.dlr.de/xsd/sumoConfiguration.xsd">

    <input>
        <net-file value="E:/licenta/oras-mediu/2025-06-05-11-45-23\osm.net.xml"/>
        <route-files value="E:/licenta/oras-mediu/2025-06-05-11-45-23\full.rou.xml,E:/licenta/oras-mediu/2025-06-05-11-45-23\ ped.rou.xml,E:/licenta/oras-mediu/2025-06-05-11-45-23\ truck.rou.xml"/>
        <additional-files value="E:/licenta/oras-mediu/2025-06-05-11-45-23\osm.poly.xml,E:/licenta/oras-mediu/2025-06-05-11-45-23\ vtypes.xml"/>
    </input>

    <output>
        <summary-output value="E:/licenta/oras-mediu/2025-06-05-11-45-23\summary.xml"/>
        <tripinfo-output value="E:/licenta/oras-mediu/2025-06-05-11-45-23\tripinfo.xml"/>
    </output>

    <processing>
        <ignore-route-errors value="true"/>
        <tls.actuated.jam-threshold value="30"/>
    </processing>

    <routing>
        <device.rerouting.adaptation-steps value="18"/>
        <device.rerouting.adaptation-interval value="10"/>
    </routing>

    <report>
        <verbose value="true"/>
        <duration-log.statistics value="true"/>
        <no-step-log value="true"/>
    </report>

    <traci_server>
        <remote-port value="50443"/>
    </traci_server>

    <gui_only>
        <gui-settings-file value="E:/licenta/oras-mediu/2025-06-05-11-45-23\osm.view.xml"/>
    </gui_only>

</sumoConfiguration>
-->

<tripinfos xmlns:xsi="http://www.w3.org/2001/XMLSchema-instance" xsi:noNamespaceSchemaLocation="http://sumo.dlr.de/xsd/tripinfo_file.xsd">
    <tripinfo id="veh23" depart="15.00" departLane="-43544588#0_1" departPos="101.21" departSpeed="0.00" departDelay="0.05" arrival="61.00" arrivalLane="43544197#8_1" arrivalPos="132.38" arrivalSpeed="15.41" duration="46.00" routeLength="560.53" waitingTime="0.00" waitingCount="0" stopTime="0.00" timeLoss="10.17" rerouteNo="0" devices="tripinfo_veh23" vType="passenger" speedFactor="1.15" vaporized=""/>
    <tripinfo id="veh9" depart="6.00" departLane="-43546343#1_1" departPos="12.25" departSpeed="0.00" departDelay="0.15" arrival="80.00" arrivalLane="1135854210_1" arrivalPos="13.11" arrivalSpeed="3.85" duration="74.00" routeLength="654.39" waitingTime="0.00" waitingCount="0" stopTime="0.00" timeLoss="15.41" rerouteNo="0" devices="tripinfo_veh9" vType="passenger" speedFactor="0.90" vaporized=""/>
    <tripinfo id="veh6" depart="4.00" departLane="-859732801#1_1" departPos="18.67" departSpeed="0.00" departDelay="0.10" arrival="99.00" arrivalLane="-48736646#1_1" arrivalPos="156.36" arrivalSpeed="13.33" duration="95.00" routeLength="1010.43" waitingTime="1.00" waitingCount="1" stopTime="0.00" timeLoss="21.88" rerouteNo="0" devices="tripinfo_veh6" vType="delivery" speedFactor="1.05" vaporized=""/>
    <tripinfo id="veh34" depart="23.00" departLane="-48797765#2_1" departPos="17.44" departSpeed="0.00" departDelay="0.90" arrival="110.00" arrivalLane="40236093_1" arrivalPos="79.24" arrivalSpeed="13.06" duration="87.00" routeLength="833.75" waitingTime="0.00" waitingCount="0" stopTime="0.00" timeLoss="21.76" rerouteNo="0" devices="tripinfo_veh34" vType="emergency" speedFactor="1.00" vaporized=""/>
    <tripinfo id="veh5" depart="4.00" departLane="383582498_0" departPos="98.97" departSpeed="0.00" departDelay="0.75" arrival="113.00" arrivalLane="43546460#6_1" arrivalPos="16.33" arrivalSpeed="13.49" duration="109.00" routeLength="882.02" waitingTime="0.00" waitingCount="0" stopTime="0.00" timeLoss="20.06" rerouteNo="0" devices="tripinfo_veh5" vType="passenger" speedFactor="1.02" vaporized=""/>
    <personinfo id="ped2" depart="10.00" type="DEFAULT_PEDTYPE" speedFactor="1.05" duration="104.00" waitingTime="0.00" timeLoss="9.74" traveltime="104.00">
        <walk depart="10.00" departPos="0.00" arrival="114.00" arrivalPos="0.11" duration="104.00" routeLength="137.81" timeLoss="9.74" maxSpeed="1.46"/>
    </personinfo>
    <tripinfo id="veh79" depart="52.00" departLane="43544001#5_1" departPos="3.96" departSpeed="0.00" departDelay="0.65" arrival="123.00" arrivalLane="143207979#6_1" arrivalPos="223.32" arrivalSpeed="12.37" duration="71.00" routeLength="725.01" waitingTime="0.00" waitingCount="0" stopTime="0.00" timeLoss="15.58" rerouteNo="0" devices="tripinfo_veh79" vType="delivery" speedFactor="0.98" vaporized=""/>
    <tripinfo id="veh98" depart="64.00" departLane="-48778503#1_1" departPos="42.20" departSpeed="0.00" departDelay="0.30" arrival="130.00" arrivalLane="-578560104#6_1" arrivalPos="101.21" arrivalSpeed="14.10" duration="66.00" routeLength="756.96" waitingTime="0.00" waitingCount="0" stopTime="0.00" timeLoss="10.94" rerouteNo="0" devices="tripinfo_veh98" vType="passenger" speedFactor="1.02" vaporized=""/>
    <tripinfo id="veh95" depart="62.00" departLane="48778475#1_1" departPos="2.83" departSpeed="0.00" departDelay="0.25" arrival="133.00" arrivalLane="40345930_1" arrivalPos="22.03" arrivalSpeed="12.53" duration="71.00" routeLength="769.31" waitingTime="0.00" waitingCount="0" stopTime="0.00" timeLoss="12.80" rerouteNo="0" devices="tripinfo_veh95" vType="motorcycle" speedFactor="0.98" vaporized=""/>
    <tripinfo id="veh57" depart="38.00" departLane="48736621#0_1" departPos="6.00" departSpeed="0.00" departDelay="0.95" arrival="134.00" arrivalLane="258551297#0_0" arrivalPos="10.90" arrivalSpeed="5.38" duration="96.00" routeLength="1069.17" waitingTime="0.00" waitingCount="0" stopTime="0.00" timeLoss="21.38" rerouteNo="0" devices="tripinfo_veh57" vType="passenger" speedFactor="1.12" vaporized=""/>
    <tripinfo id="veh31" depart="21.00" departLane="-48736640#1_1" departPos="41.16" departSpeed="0.00" departDelay="0.85" arrival="137.00" arrivalLane="258551297#0_0" arrivalPos="10.90" arrivalSpeed="4.69" duration="116.00" routeLength="1100.91" waitingTime="10.00" waitingCount="2" stopTime="0.00" timeLoss="35.15" rerouteNo="0" devices="tripinfo_veh31" vType="passenger" speedFactor="1.03" vaporized=""/>
    <tripinfo id="veh172" depart="112.00" departLane="40236220#2_1" departPos="3.93" departSpeed="0.00" departDelay="0.20" arrival="141.00" arrivalLane="40236144#2_1" arrivalPos="51.61" arrivalSpeed="13.51" duration="29.00" routeLength="331.56" waitingTime="0.00" waitingCount="0" stopTime="0.00" timeLoss="5.10" rerouteNo="0" devices="tripinfo_veh172" vType="passenger" speedFactor="1.04" vaporized=""/>
    <tripinfo id="veh13" depart="9.00" departLane="1205541344_0" departPos="68.26" departSpeed="0.00" departDelay="0.55" arrival="143.00" arrivalLane="-43544624#0_1" arrivalPos="295.18" arrivalSpeed="13.68" duration="134.00" routeLength="1546.45" waitingTime="0.00" waitingCount="0" stopTime="0.00" timeLoss="17.04" rerouteNo="0" devices="tripinfo_veh13" vType="emergency" speedFactor="1.00" vaporized=""/>
    <tripinfo id="veh21" depart="14.00" departLane="647998063#1_1" departPos="15.72" departSpeed="0.00" departDelay="0.35" arrival="143.00" arrivalLane="-48778514#1_1" arrivalPos="255.62" arrivalSpeed="14.89" duration="129.00" routeLength="1528.86" waitingTime="0.00" waitingCount="0" stopTime="0.00" timeLoss="27.17" rerouteNo="0" devices="tripinfo_veh21" vType="passenger" speedFactor="1.13" vaporized=""/>
    <tripinfo id="veh22" depart="15.00" departLane="383582513_0" departPos="41.53" departSpeed="0.00" departDelay="0.70" arrival="143.00" arrivalLane="48778489#0_1" arrivalPos="265.37" arrivalSpeed="12.13" duration="128.00" routeLength="1337.05" waitingTime="0.00" waitingCount="0" stopTime="0.00" timeLoss="14.76" rerouteNo="0" devices="tripinfo_veh22" vType="passenger" speedFactor="0.89" vaporized=""/>
    <tripinfo id="veh66" depart="43.00" departLane="-48736620#0_1" departPos="26.15" departSpeed="0.00" departDelay="0.10" arrival="144.00" arrivalLane="-383582519_0" arrivalPos="74.79" arrivalSpeed="5.31" duration="101.00" routeLength="1013.97" waitingTime="0.00" waitingCount="0" stopTime="0.00" timeLoss="14.59" rerouteNo="0" devices="tripinfo_veh66" vType="passenger" speedFactor="0.98" vaporized=""/>
    <tripinfo id="veh12" depart="8.00" departLane="354259927_1" departPos="93.35" departSpeed="0.00" departDelay="0.20" arrival="145.00" arrivalLane="222605084#2_1" arrivalPos="1.52" arrivalSpeed="4.80" duration="137.00" routeLength="1470.36" waitingTime="0.00" waitingCount="0" stopTime="0.00" timeLoss="18.16" rerouteNo="0" devices="tripinfo_veh12" vType="delivery" speedFactor="0.97" vaporized=""/>
    <tripinfo id="veh93" depart="61.00" departLane="-48778485#1_1" departPos="3.47" departSpeed="0.00" departDelay="0.55" arrival="147.00" arrivalLane="40330557#2_1" arrivalPos="100.16" arrivalSpeed="14.64" duration="86.00" routeLength="1059.91" waitingTime="0.00" waitingCount="0" stopTime="0.00" timeLoss="16.42" rerouteNo="0" devices="tripinfo_veh93" vType="passenger" speedFactor="1.13" vaporized=""/>
    <tripinfo id="veh38" depart="25.00" departLane="-40306149_1" departPos="29.13" departSpeed="0.00" departDelay="0.30" arrival="148.00" arrivalLane="859732803#0_0" arrivalPos="20.07" arrivalSpeed="4.74" duration="123.00" routeLength="1161.61" waitingTime="0.00" waitingCount="0" stopTime="0.00" timeLoss="19.68" rerouteNo="0" devices="tripinfo_veh38" vType="passenger" speedFactor="0.88" vaporized=""/>
    <tripinfo id="veh27" depart="18.00" departLane="-E40_0" departPos="1.62" departSpeed="0.00" departDelay="0.45" arrival="150.00" arrivalLane="530106516#0_1" arrivalPos="77.36" arrivalSpeed="12.42" duration="132.00" routeLength="1181.21" waitingTime="24.00" waitingCount="2" stopTime="0.00" timeLoss="46.13" rerouteNo="0" devices="tripinfo_veh27" vType="motorcycle" speedFactor="1.02" vaporized=""/>
    <tripinfo id="veh116" depart="76.00" departLane="40265775#0_1" departPos="71.66" departSpeed="0.00" departDelay="0.60" arrival="150.00" arrivalLane="48778510#1_1" arrivalPos="102.69" arrivalSpeed="15.87" duration="74.00" routeLength="939.81" waitingTime="0.00" waitingCount="0" stopTime="0.00" timeLoss="16.65" rerouteNo="0" devices="tripinfo_veh116" vType="passenger" speedFactor="1.21" vaporized=""/>
    <tripinfo id="veh168" depart="110.00" departLane="-1250915721#0_1" departPos="0.41" departSpeed="0.00" departDelay="0.80" arrival="152.00" arrivalLane="222605084#2_1" arrivalPos="1.52" arrivalSpeed="5.19" duration="42.00" routeLength="159.72" waitingTime="0.00" waitingCount="0" stopTime="0.00" timeLoss="13.37" rerouteNo="0" devices="tripinfo_veh168" vType="motorcycle" speedFactor="1.00" vaporized=""/>
    <tripinfo id="veh1" depart="1.00" departLane="43546789#0_1" departPos="0.67" departSpeed="0.00" departDelay="0.35" arrival="153.00" arrivalLane="40314853#1_1" arrivalPos="111.61" arrivalSpeed="14.85" duration="152.00" routeLength="1855.48" waitingTime="1.00" waitingCount="1" stopTime="0.00" timeLoss="25.39" rerouteNo="0" devices="tripinfo_veh1" vType="passenger" speedFactor="1.08" vaporized=""/>
    <tripinfo id="veh8" depart="6.00" departLane="40314583#4_1" departPos="16.73" departSpeed="0.00" departDelay="0.80" arrival="156.00" arrivalLane="48778449#1_1" arrivalPos="70.68" arrivalSpeed="15.03" duration="150.00" routeLength="1334.78" waitingTime="35.00" waitingCount="1" stopTime="0.00" timeLoss="60.67" rerouteNo="0" devices="tripinfo_veh8" vType="passenger" speedFactor="1.12" vaporized=""/>
    <tripinfo id="veh115" depart="75.00" departLane="-304695350#1_1" departPos="83.81" departSpeed="0.00" departDelay="0.25" arrival="156.00" arrivalLane="-43546449#2_1" arrivalPos="49.54" arrivalSpeed="13.87" duration="81.00" routeLength="836.28" waitingTime="0.00" waitingCount="0" stopTime="0.00" timeLoss="14.41" rerouteNo="0" devices="tripinfo_veh115" vType="delivery" speedFactor="1.06" vaporized=""/>
    <tripinfo id="veh55" depart="36.00" departLane="-353939570#8_1" departPos="34.13" departSpeed="0.00" departDelay="0.25" arrival="164.00" arrivalLane="354252039#1_1" arrivalPos="19.16" arrivalSpeed="12.30" duration="128.00" routeLength="1330.41" waitingTime="1.00" waitingCount="1" stopTime="0.00" timeLoss="24.57" rerouteNo="0" devices="tripinfo_veh55" vType="delivery" speedFactor="0.96" vaporized=""/>
    <tripinfo id="veh19" depart="13.00" departLane="-1136289987_1" departPos="66.12" departSpeed="0.00" departDelay="0.65" arrival="166.00" arrivalLane="-996486453_1" arrivalPos="111.92" arrivalSpeed="11.06" duration="153.00" routeLength="1421.31" waitingTime="0.00" waitingCount="0" stopTime="0.00" timeLoss="26.94" rerouteNo="0" devices="tripinfo_veh19" vType="passenger" speedFactor="0.87" vaporized=""/>
    <tripinfo id="veh102" depart="67.00" departLane="43544179#4_1" departPos="10.32" departSpeed="0.00" departDelay="0.70" arrival="166.00" arrivalLane="48778525#1_1" arrivalPos="14.99" arrivalSpeed="14.67" duration="99.00" routeLength="1182.19" waitingTime="0.00" waitingCount="0" stopTime="0.00" timeLoss="19.18" rerouteNo="0" devices="tripinfo_veh102" vType="passenger" speedFactor="1.12" vaporized=""/>
    <tripinfo id="veh53" depart="35.00" departLane="-40236220#2_1" departPos="6.22" departSpeed="0.00" departDelay="0.55" arrival="167.00" arrivalLane="859734514#1_0" arrivalPos="56.51" arrivalSpeed="5.24" duration="132.00" routeLength="1247.24" waitingTime="0.00" waitingCount="0" stopTime="0.00" timeLoss="20.07" rerouteNo="0" devices="tripinfo_veh53" vType="passenger" speedFactor="0.95" vaporized=""/>
    <tripinfo id="veh137" depart="91.00" departLane="48736637_1" departPos="4.73" departSpeed="0.00" departDelay="1.95" arrival="171.00" arrivalLane="-48797768_1" arrivalPos="94.07" arrivalSpeed="12.10" duration="80.00" routeLength="799.65" waitingTime="0.00" waitingCount="0" stopTime="0.00" timeLoss="11.88" rerouteNo="0" devices="tripinfo_veh137" vType="passenger" speedFactor="0.90" vaporized=""/>
    <tripinfo id="veh40" depart="26.00" departLane="1136283381_1" departPos="20.13" departSpeed="0.00" departDelay="0.00" arrival="173.00" arrivalLane="-222605084#1_1" arrivalPos="0.37" arrivalSpeed="5.68" duration="147.00" routeLength="1367.63" waitingTime="0.00" waitingCount="0" stopTime="0.00" timeLoss="26.13" rerouteNo="0" devices="tripinfo_veh40" vType="passenger" speedFactor="1.17" vaporized=""/>
    <tripinfo id="veh145" depart="95.00" departLane="996984133_1" departPos="47.84" departSpeed="0.00" departDelay="0.75" arrival="178.00" arrivalLane="-48778508#0_1" arrivalPos="11.34" arrivalSpeed="13.37" duration="83.00" routeLength="577.49" waitingTime="0.00" waitingCount="0" stopTime="0.00" timeLoss="19.14" rerouteNo="0" devices="tripinfo_veh145" vType="motorcycle" speedFactor="0.97" vaporized=""/>
    <tripinfo id="veh71" depart="47.00" departLane="48778457#1_1" departPos="24.98" departSpeed="0.00" departDelay="0.85" arrival="179.00" arrivalLane="-40299739#3_1" arrivalPos="92.34" arrivalSpeed="14.26" duration="132.00" routeLength="937.23" waitingTime="37.00" waitingCount="2" stopTime="0.00" timeLoss="62.48" rerouteNo="0" devices="tripinfo_veh71" vType="passenger" speedFactor="1.06" vaporized=""/>
    <tripinfo id="veh119" depart="78.00" departLane="43547017#0_1" departPos="31.86" departSpeed="0.00" departDelay="0.65" arrival="181.00" arrivalLane="-1136284448_1" arrivalPos="34.50" arrivalSpeed="8.11" duration="103.00" routeLength="1177.57" waitingTime="0.00" waitingCount="0" stopTime="0.00" timeLoss="17.05" rerouteNo="0" devices="tripinfo_veh119" vType="motorcycle" speedFactor="1.04" vaporized=""/>
    <tripinfo id="veh158" depart="103.00" departLane="92198452#0_1" departPos="21.33" departSpeed="0.00" departDelay="0.30" arrival="186.00" arrivalLane="-40345956#3_1" arrivalPos="5.00" arrivalSpeed="7.85" duration="83.00" routeLength="944.07" waitingTime="0.00" waitingCount="0" stopTime="0.00" timeLoss="12.89" rerouteNo="0" devices="tripinfo_veh158" vType="passenger" speedFactor="1.00" vaporized=""/>
    <tripinfo id="veh45" depart="30.00" departLane="43546460#10_1" departPos="50.31" departSpeed="0.00" departDelay="0.75" arrival="188.00" arrivalLane="-859726677#0_1" arrivalPos="35.20" arrivalSpeed="4.82" duration="158.00" routeLength="1751.34" waitingTime="1.00" waitingCount="1" stopTime="0.00" timeLoss="21.46" rerouteNo="0" devices="tripinfo_veh45" vType="delivery" speedFactor="0.98" vaporized=""/>
    <tripinfo id="veh24" depart="16.00" departLane="-48736638#1_1" departPos="41.66" departSpeed="0.00" departDelay="0.40" arrival="189.00" arrivalLane="945793486#0_0" arrivalPos="4.75" arrivalSpeed="5.16" duration="173.00" routeLength="1361.18" waitingTime="38.00" waitingCount="2" stopTime="0.00" timeLoss="78.59" rerouteNo="0" devices="tripinfo_veh24" vType="passenger" speedFactor="1.12" vaporized=""/>
    <tripinfo id="veh96" depart="63.00" departLane="383582511#1_0" departPos="1.68" departSpeed="0.00" departDelay="0.60" arrival="189.00" arrivalLane="-647610982#2_1" arrivalPos="11.90" arrivalSpeed="9.76" duration="126.00" routeLength="1377.01" waitingTime="0.00" waitingCount="0" stopTime="0.00" timeLoss="17.93" rerouteNo="0" devices="tripinfo_veh96" vType="motorcycle" speedFactor="0.94" vaporized=""/>
    <personinfo id="ped16" depart="80.00" type="DEFAULT_PEDTYPE" speedFactor="0.91" duration="110.00" waitingTime="0.00" timeLoss="11.57" traveltime="110.00">
        <walk depart="80.00" departPos="0.00" arrival="190.00" arrivalPos="22.14" duration="110.00" routeLength="124.41" timeLoss="11.57" maxSpeed="1.26"/>
    </personinfo>
    <tripinfo id="veh219" depart="143.00" departLane="-352818096#1_0" departPos="1.77" departSpeed="0.00" departDelay="0.65" arrival="190.00" arrivalLane="-878079387#0_0" arrivalPos="170.01" arrivalSpeed="12.46" duration="47.00" routeLength="507.95" waitingTime="0.00" waitingCount="0" stopTime="0.00" timeLoss="6.09" rerouteNo="0" devices="tripinfo_veh219" vType="delivery" speedFactor="0.93" vaporized=""/>
    <tripinfo id="veh84" depart="55.00" departLane="-48778457#0_1" departPos="1.03" departSpeed="0.00" departDelay="0.40" arrival="194.00" arrivalLane="250295384_1" arrivalPos="124.18" arrivalSpeed="13.65" duration="139.00" routeLength="1261.59" waitingTime="9.00" waitingCount="1" stopTime="0.00" timeLoss="46.91" rerouteNo="0" devices="tripinfo_veh84" vType="passenger" speedFactor="1.03" vaporized=""/>
    <tripinfo id="veh83" depart="54.00" departLane="-48736645_1" departPos="34.77" departSpeed="0.00" departDelay="0.05" arrival="195.00" arrivalLane="-43546039#2_1" arrivalPos="275.61" arrivalSpeed="14.05" duration="141.00" routeLength="1648.08" waitingTime="3.00" waitingCount="1" stopTime="0.00" timeLoss="27.80" rerouteNo="0" devices="tripinfo_veh83" vType="passenger" speedFactor="1.08" vaporized=""/>
    <tripinfo id="veh64" depart="42.00" departLane="-383582504#0_0" departPos="1.74" departSpeed="0.00" departDelay="0.40" arrival="197.00" arrivalLane="48778478#2_1" arrivalPos="30.02" arrivalSpeed="13.84" duration="155.00" routeLength="1334.51" waitingTime="28.00" waitingCount="1" stopTime="0.00" timeLoss="61.85" rerouteNo="0" devices="tripinfo_veh64" vType="passenger" speedFactor="1.08" vaporized=""/>
    <tripinfo id="veh63" depart="41.00" departLane="43548506_1" departPos="37.55" departSpeed="0.00" departDelay="0.05" arrival="200.00" arrivalLane="1250915720#0_1" arrivalPos="2.68" arrivalSpeed="4.43" duration="159.00" routeLength="1755.47" waitingTime="0.00" waitingCount="0" stopTime="0.00" timeLoss="20.21" rerouteNo="0" devices="tripinfo_veh63" vType="passenger" speedFactor="1.02" vaporized=""/>
    <tripinfo id="veh42" depart="28.00" departLane="223883703_0" departPos="23.27" departSpeed="0.00" departDelay="0.70" arrival="201.00" arrivalLane="48778525#0_1" arrivalPos="49.94" arrivalSpeed="11.40" duration="173.00" routeLength="1773.11" waitingTime="11.00" waitingCount="1" stopTime="0.00" timeLoss="36.63" rerouteNo="0" devices="tripinfo_veh42" vType="motorcycle" speedFactor="1.00" vaporized=""/>
    <tripinfo id="veh178" depart="116.00" departLane="-258551283#1_1" departPos="33.62" departSpeed="0.00" departDelay="0.30" arrival="203.00" arrivalLane="43544179#12_1" arrivalPos="77.06" arrivalSpeed="5.43" duration="87.00" routeLength="467.96" waitingTime="0.00" waitingCount="0" stopTime="0.00" timeLoss="7.63" rerouteNo="0" devices="tripinfo_veh178" vType="bicycle" speedFactor="1.07" vaporized=""/>
    <tripinfo id="veh47" depart="31.00" departLane="40236144#2_1" departPos="0.60" departSpeed="0.00" departDelay="0.45" arrival="204.00" arrivalLane="-43544197#0_1" arrivalPos="48.34" arrivalSpeed="13.38" duration="173.00" routeLength="2036.67" waitingTime="0.00" waitingCount="0" stopTime="0.00" timeLoss="22.22" rerouteNo="0" devices="tripinfo_veh47" vType="passenger" speedFactor="1.00" vaporized=""/>
    <tripinfo id="veh107" depart="70.00" departLane="-E11_2" departPos="5.03" departSpeed="0.00" departDelay="0.45" arrival="206.00" arrivalLane="-250295513_1" arrivalPos="43.99" arrivalSpeed="13.85" duration="136.00" routeLength="1649.24" waitingTime="0.00" waitingCount="0" stopTime="0.00" timeLoss="18.11" rerouteNo="0" devices="tripinfo_veh107" vType="motorcycle" speedFactor="1.04" vaporized=""/>
    <tripinfo id="veh117" depart="77.00" departLane="43546688#2_1" departPos="14.47" departSpeed="0.00" departDelay="0.95" arrival="206.00" arrivalLane="43546449#2_1" arrivalPos="49.88" arrivalSpeed="11.86" duration="129.00" routeLength="1297.98" waitingTime="0.00" waitingCount="0" stopTime="0.00" timeLoss="20.94" rerouteNo="0" devices="tripinfo_veh117" vType="passenger" speedFactor="0.89" vaporized=""/>
    <tripinfo id="veh277" depart="181.00" departLane="945793490#3_1" departPos="12.31" departSpeed="0.00" departDelay="0.95" arrival="206.00" arrivalLane="945793491#1_1" arrivalPos="67.96" arrivalSpeed="4.35" duration="25.00" routeLength="115.54" waitingTime="0.00" waitingCount="0" stopTime="0.00" timeLoss="3.61" rerouteNo="0" devices="tripinfo_veh277" vType="delivery" speedFactor="0.97" vaporized=""/>
    <tripinfo id="veh195" depart="127.00" departLane="48788485#4_1" departPos="3.90" departSpeed="0.00" departDelay="0.25" arrival="207.00" arrivalLane="43546935#2_1" arrivalPos="44.28" arrivalSpeed="14.38" duration="80.00" routeLength="940.29" waitingTime="0.00" waitingCount="0" stopTime="0.00" timeLoss="16.16" rerouteNo="0" devices="tripinfo_veh195" vType="passenger" speedFactor="1.10" vaporized=""/>
    <tripinfo id="veh41" depart="27.00" departLane="222609004#0_1" departPos="24.91" departSpeed="0.00" departDelay="0.35" arrival="208.00" arrivalLane="43546064#2_1" arrivalPos="103.27" arrivalSpeed="13.99" duration="181.00" routeLength="2061.10" waitingTime="0.00" waitingCount="0" stopTime="0.00" timeLoss="32.35" rerouteNo="0" devices="tripinfo_veh41" vType="passenger" speedFactor="1.05" vaporized=""/>
    <tripinfo id="veh144" depart="94.00" departLane="48778480#4_2" departPos="1.53" departSpeed="0.00" departDelay="0.40" arrival="210.00" arrivalLane="-48736611#0_1" arrivalPos="94.02" arrivalSpeed="6.30" duration="116.00" routeLength="1250.88" waitingTime="4.00" waitingCount="1" stopTime="0.00" timeLoss="25.70" rerouteNo="0" devices="tripinfo_veh144" vType="motorcycle" speedFactor="1.08" vaporized=""/>
    <tripinfo id="veh176" depart="115.00" departLane="-43573547#1_1" departPos="5.87" departSpeed="0.00" departDelay="0.60" arrival="210.00" arrivalLane="48778508#4_1" arrivalPos="24.77" arrivalSpeed="13.17" duration="95.00" routeLength="944.31" waitingTime="0.00" waitingCount="0" stopTime="0.00" timeLoss="21.50" rerouteNo="0" devices="tripinfo_veh176" vType="passenger" speedFactor="0.97" vaporized=""/>
    <tripinfo id="veh18" depart="12.00" departLane="-43546460#8_1" departPos="31.94" departSpeed="0.00" departDelay="0.30" arrival="212.00" arrivalLane="859728207_0" arrivalPos="18.62" arrivalSpeed="5.24" duration="200.00" routeLength="2196.75" waitingTime="0.00" waitingCount="0" stopTime="0.00" timeLoss="23.91" rerouteNo="0" devices="tripinfo_veh18" vType="passenger" speedFactor="1.01" vaporized=""/>
    <tripinfo id="veh29" depart="19.00" departLane="-40299739#0_1" departPos="52.77" departSpeed="0.00" departDelay="0.15" arrival="212.00" arrivalLane="-48736617#0_1" arrivalPos="24.82" arrivalSpeed="10.74" duration="193.00" routeLength="1481.32" waitingTime="51.00" waitingCount="3" stopTime="0.00" timeLoss="91.98" rerouteNo="0" devices="tripinfo_veh29" vType="passenger" speedFactor="1.10" vaporized=""/>
    <tripinfo id="veh3" depart="2.00" departLane="43544138#3_1" departPos="27.14" departSpeed="0.00" departDelay="0.05" arrival="213.00" arrivalLane="-383582500_0" arrivalPos="179.38" arrivalSpeed="2.89" duration="211.00" routeLength="1871.04" waitingTime="0.00" waitingCount="0" stopTime="0.00" timeLoss="34.53" rerouteNo="0" devices="tripinfo_veh3" vType="passenger" speedFactor="1.08" vaporized=""/>
    <tripinfo id="veh153" depart="100.00" departLane="-48778500#1_1" departPos="49.67" departSpeed="0.00" departDelay="0.55" arrival="214.00" arrivalLane="43544179#12_1" arrivalPos="77.06" arrivalSpeed="16.32" duration="114.00" routeLength="1329.65" waitingTime="0.00" waitingCount="0" stopTime="0.00" timeLoss="28.71" rerouteNo="0" devices="tripinfo_veh153" vType="passenger" speedFactor="1.18" vaporized=""/>
    <tripinfo id="veh70" depart="46.00" departLane="40330575#3_1" departPos="18.25" departSpeed="0.00" departDelay="0.50" arrival="215.00" arrivalLane="-48736624#1_1" arrivalPos="55.65" arrivalSpeed="14.51" duration="169.00" routeLength="1863.08" waitingTime="15.00" waitingCount="1" stopTime="0.00" timeLoss="37.24" rerouteNo="0" devices="tripinfo_veh70" vType="passenger" speedFactor="1.05" vaporized=""/>
    <tripinfo id="veh100" depart="65.00" departLane="48778502#1_1" departPos="142.19" departSpeed="0.00" departDelay="0.00" arrival="217.00" arrivalLane="43546053#1_1" arrivalPos="96.03" arrivalSpeed="13.68" duration="152.00" routeLength="1769.22" waitingTime="0.00" waitingCount="0" stopTime="0.00" timeLoss="24.10" rerouteNo="0" devices="tripinfo_veh100" vType="passenger" speedFactor="1.03" vaporized=""/>
    <tripinfo id="veh62" depart="41.00" departLane="-92198453#2_1" departPos="23.08" departSpeed="0.00" departDelay="0.70" arrival="218.00" arrivalLane="43546688#2_1" arrivalPos="41.74" arrivalSpeed="11.54" duration="177.00" routeLength="1777.27" waitingTime="0.00" waitingCount="0" stopTime="0.00" timeLoss="31.29" rerouteNo="0" devices="tripinfo_veh62" vType="passenger" speedFactor="0.90" vaporized=""/>
    <tripinfo id="veh33" depart="22.00" departLane="-43544197#4_1" departPos="40.59" departSpeed="0.00" departDelay="0.55" arrival="219.00" arrivalLane="40266619_1" arrivalPos="33.64" arrivalSpeed="12.79" duration="197.00" routeLength="1954.08" waitingTime="28.00" waitingCount="1" stopTime="0.00" timeLoss="58.02" rerouteNo="0" devices="tripinfo_veh33" vType="passenger" speedFactor="1.04" vaporized=""/>
    <tripinfo id="veh142" depart="93.00" departLane="1136279381_1" departPos="69.43" departSpeed="0.00" departDelay="0.70" arrival="223.00" arrivalLane="40314583#2_1" arrivalPos="159.44" arrivalSpeed="5.76" duration="130.00" routeLength="724.41" waitingTime="0.00" waitingCount="0" stopTime="0.00" timeLoss="10.18" rerouteNo="0" devices="tripinfo_veh142" vType="bicycle" speedFactor="1.09" vaporized=""/>
    <tripinfo id="veh225" depart="147.00" departLane="-43544179#11_1" departPos="12.89" departSpeed="0.00" departDelay="0.75" arrival="229.00" arrivalLane="-143207979#7_1" arrivalPos="72.83" arrivalSpeed="11.96" duration="82.00" routeLength="781.43" waitingTime="0.00" waitingCount="0" stopTime="0.00" timeLoss="19.72" rerouteNo="0" devices="tripinfo_veh225" vType="passenger" speedFactor="0.97" vaporized=""/>
    <tripinfo id="veh179" depart="117.00" departLane="-48778478#2_1" departPos="17.14" departSpeed="0.00" departDelay="0.65" arrival="231.00" arrivalLane="-647755347#0_1" arrivalPos="70.01" arrivalSpeed="12.97" duration="114.00" routeLength="1135.33" waitingTime="0.00" waitingCount="0" stopTime="0.00" timeLoss="25.49" rerouteNo="0" devices="tripinfo_veh179" vType="motorcycle" speedFactor="1.00" vaporized=""/>
    <tripinfo id="veh212" depart="138.00" departLane="-48778494#0_1" departPos="25.36" departSpeed="0.00" departDelay="0.20" arrival="231.00" arrivalLane="40345956#3_1" arrivalPos="4.99" arrivalSpeed="12.50" duration="93.00" routeLength="977.34" waitingTime="0.00" waitingCount="0" stopTime="0.00" timeLoss="15.92" rerouteNo="0" devices="tripinfo_veh212" vType="passenger" speedFactor="0.96" vaporized=""/>
    <tripinfo id="veh69" depart="45.00" departLane="-1250915721#1_1" departPos="4.49" departSpeed="0.00" departDelay="0.15" arrival="233.00" arrivalLane="-43573573#3_1" arrivalPos="71.51" arrivalSpeed="11.05" duration="188.00" routeLength="1715.65" waitingTime="0.00" waitingCount="0" stopTime="0.00" timeLoss="20.87" rerouteNo="0" devices="tripinfo_veh69" vType="passenger" speedFactor="0.83" vaporized=""/>
    <tripinfo id="veh89" depart="58.00" departLane="48778464#2_1" departPos="12.48" departSpeed="0.00" departDelay="0.15" arrival="233.00" arrivalLane="40330575#3_1" arrivalPos="23.10" arrivalSpeed="14.02" duration="175.00" routeLength="1545.58" waitingTime="21.00" waitingCount="1" stopTime="0.00" timeLoss="56.76" rerouteNo="0" devices="tripinfo_veh89" vType="delivery" speedFactor="1.01" vaporized=""/>
    <tripinfo id="veh121" depart="79.00" departLane="383582500_0" departPos="52.78" departSpeed="0.00" departDelay="0.35" arrival="236.00" arrivalLane="143207979#1_1" arrivalPos="43.59" arrivalSpeed="13.95" duration="157.00" routeLength="1424.08" waitingTime="0.00" waitingCount="0" stopTime="0.00" timeLoss="24.47" rerouteNo="0" devices="tripinfo_veh121" vType="passenger" speedFactor="1.07" vaporized=""/>
    <tripinfo id="veh85" depart="56.00" departLane="945793491#0_1" departPos="31.93" departSpeed="0.00" departDelay="0.75" arrival="239.00" arrivalLane="40265780#0_1" arrivalPos="187.83" arrivalSpeed="12.56" duration="183.00" routeLength="1744.25" waitingTime="2.00" waitingCount="1" stopTime="0.00" timeLoss="27.60" rerouteNo="0" devices="tripinfo_veh85" vType="passenger" speedFactor="0.98" vaporized=""/>