<?xml version="1.0" encoding="UTF-8"?>

<!-- generated on 2025-06-15 21:46:52 by Eclipse SUMO sumo Version 1.22.0
<sumoConfiguration xmlns:xsi="http://www.w3.org/2001/XMLSchema-instance" xsi:noNamespaceSchemaLocation="http://sumo.dlr.de/xsd/sumoConfiguration.xsd">

    <input>
        <net-file value="E:/licenta/oras-mediu/2025-06-05-11-45-23\osm.net.xml"/>
        <route-files value="E:/licenta/oras-mediu/2025-06-05-11-45-23\full.rou.xml,E:/licenta/oras-mediu/2025-06-05-11-45-23\ ped.rou.xml,E:/licenta/oras-mediu/2025-06-05-11-45-23\ truck.rou.xml"/>
        <additional-files value="E:/licenta/oras-mediu/2025-06-05-11-45-23\osm.poly.xml,E:/licenta/oras-mediu/2025-06-05-11-45-23\ vtypes.xml"/>
    </input>

    <output>
        <summary-output value="E:/licenta/oras-mediu/2025-06-05-11-45-23\summary.xml"/>
        <tripinfo-output value="E:/licenta/oras-mediu/2025-06-05-11-45-23\tripinfo.xml"/>
    </output>

    <processing>
        <ignore-route-errors value="true"/>
        <tls.actuated.jam-threshold value="30"/>
    </processing>

    <routing>
        <device.rerouting.adaptation-steps value="18"/>
        <device.rerouting.adaptation-interval value="10"/>
    </routing>

    <report>
        <verbose value="true"/>
        <duration-log.statistics value="true"/>
        <no-step-log value="true"/>
    </report>

    <traci_server>
        <remote-port value="64714"/>
    </traci_server>

    <gui_only>
        <gui-settings-file value="E:/licenta/oras-mediu/2025-06-05-11-45-23\osm.view.xml"/>
    </gui_only>

</sumoConfiguration>
-->

<tripinfos xmlns:xsi="http://www.w3.org/2001/XMLSchema-instance" xsi:noNamespaceSchemaLocation="http://sumo.dlr.de/xsd/tripinfo_file.xsd">
    <tripinfo id="veh26" depart="16.00" departLane="48736620#1_2" departPos="11.00" departSpeed="0.00" departDelay="0.40" arrival="76.00" arrivalLane="-143207982#1_1" arrivalPos="40.37" arrivalSpeed="13.37" duration="60.00" routeLength="427.42" waitingTime="9.00" waitingCount="1" stopTime="0.00" timeLoss="25.16" rerouteNo="0" devices="tripinfo_veh26" vType="motorcycle" speedFactor="1.02" vaporized=""/>
    <tripinfo id="veh49" depart="30.00" departLane="40266621_1" departPos="25.03" departSpeed="0.00" departDelay="0.60" arrival="90.00" arrivalLane="48778453_1" arrivalPos="29.18" arrivalSpeed="11.60" duration="60.00" routeLength="534.35" waitingTime="0.00" waitingCount="0" stopTime="0.00" timeLoss="16.47" rerouteNo="0" devices="tripinfo_veh49" vType="delivery" speedFactor="0.99" vaporized=""/>
    <tripinfo id="veh18" depart="11.00" departLane="48778493#1_1" departPos="0.79" departSpeed="0.00" departDelay="0.20" arrival="91.00" arrivalLane="353939586#1_1" arrivalPos="265.14" arrivalSpeed="11.80" duration="80.00" routeLength="703.13" waitingTime="0.00" waitingCount="0" stopTime="0.00" timeLoss="13.06" rerouteNo="0" devices="tripinfo_veh18" vType="passenger" speedFactor="0.87" vaporized=""/>
    <personinfo id="ped13" depart="65.00" type="DEFAULT_PEDTYPE" speedFactor="0.98" duration="34.00" waitingTime="0.00" timeLoss="10.39" traveltime="34.00">
        <walk depart="65.00" departPos="0.00" arrival="99.00" arrivalPos="20.40" duration="34.00" routeLength="32.05" timeLoss="10.39" maxSpeed="1.36"/>
    </personinfo>
    <tripinfo id="veh55" depart="33.00" departLane="222605085#2_1" departPos="1.72" departSpeed="0.00" departDelay="0.00" arrival="99.00" arrivalLane="-354259933#0_1" arrivalPos="10.70" arrivalSpeed="12.24" duration="66.00" routeLength="722.05" waitingTime="0.00" waitingCount="0" stopTime="0.00" timeLoss="9.37" rerouteNo="0" devices="tripinfo_veh55" vType="delivery" speedFactor="0.96" vaporized=""/>
    <tripinfo id="veh53" depart="32.00" departLane="48778524#0_1" departPos="20.38" departSpeed="0.00" departDelay="0.20" arrival="100.00" arrivalLane="-48778524#3_1" arrivalPos="28.27" arrivalSpeed="12.34" duration="68.00" routeLength="644.64" waitingTime="0.00" waitingCount="0" stopTime="0.00" timeLoss="14.85" rerouteNo="0" devices="tripinfo_veh53" vType="passenger" speedFactor="0.95" vaporized=""/>
    <tripinfo id="veh11" depart="7.00" departLane="-222609002#1_1" departPos="1.14" departSpeed="0.00" departDelay="0.40" arrival="108.00" arrivalLane="-48778473#0_1" arrivalPos="21.31" arrivalSpeed="12.90" duration="101.00" routeLength="902.46" waitingTime="18.00" waitingCount="1" stopTime="0.00" timeLoss="32.47" rerouteNo="0" devices="tripinfo_veh11" vType="delivery" speedFactor="0.97" vaporized=""/>
    <tripinfo id="veh32" depart="20.00" departLane="43546789#2_1" departPos="30.29" departSpeed="0.00" departDelay="0.80" arrival="114.00" arrivalLane="43546064#1_1" arrivalPos="98.06" arrivalSpeed="14.07" duration="94.00" routeLength="1137.12" waitingTime="0.00" waitingCount="0" stopTime="0.00" timeLoss="13.36" rerouteNo="0" devices="tripinfo_veh32" vType="passenger" speedFactor="1.04" vaporized=""/>
    <tripinfo id="veh22" depart="14.00" departLane="996984134_0" departPos="7.21" departSpeed="0.00" departDelay="0.80" arrival="119.00" arrivalLane="48778475#2_1" arrivalPos="60.73" arrivalSpeed="14.81" duration="105.00" routeLength="862.10" waitingTime="15.00" waitingCount="1" stopTime="0.00" timeLoss="41.89" rerouteNo="0" devices="tripinfo_veh22" vType="passenger" speedFactor="1.15" vaporized=""/>
    <tripinfo id="veh25" depart="15.00" departLane="-48778500#1_1" departPos="78.33" departSpeed="0.00" departDelay="0.00" arrival="123.00" arrivalLane="-40236232#0_1" arrivalPos="39.66" arrivalSpeed="12.80" duration="108.00" routeLength="1020.64" waitingTime="0.00" waitingCount="0" stopTime="0.00" timeLoss="26.67" rerouteNo="0" devices="tripinfo_veh25" vType="passenger" speedFactor="0.97" vaporized=""/>
    <tripinfo id="veh3" depart="2.00" departLane="-222609002#4_1" departPos="2.28" departSpeed="0.00" departDelay="0.20" arrival="129.00" arrivalLane="273834906_1" arrivalPos="76.57" arrivalSpeed="12.06" duration="127.00" routeLength="1344.40" waitingTime="0.00" waitingCount="0" stopTime="0.00" timeLoss="19.69" rerouteNo="0" devices="tripinfo_veh3" vType="passenger" speedFactor="0.94" vaporized=""/>
    <personinfo id="ped2" depart="10.00" type="DEFAULT_PEDTYPE" speedFactor="0.98" duration="121.00" waitingTime="0.00" timeLoss="13.03" traveltime="121.00">
        <walk depart="10.00" departPos="0.00" arrival="131.00" arrivalPos="1.74" duration="121.00" routeLength="146.55" timeLoss="13.03" maxSpeed="1.36"/>
    </personinfo>
    <tripinfo id="veh7" depart="5.00" departLane="43546105#2_1" departPos="5.08" departSpeed="0.00" departDelay="0.80" arrival="134.00" arrivalLane="33909936#5_1" arrivalPos="58.06" arrivalSpeed="14.69" duration="129.00" routeLength="1540.66" waitingTime="0.00" waitingCount="0" stopTime="0.00" timeLoss="21.41" rerouteNo="0" devices="tripinfo_veh7" vType="passenger" speedFactor="1.12" vaporized=""/>
    <tripinfo id="veh80" depart="48.00" departLane="43546064#0_1" departPos="25.17" departSpeed="0.00" departDelay="0.00" arrival="135.00" arrivalLane="-43544179#6_1" arrivalPos="35.50" arrivalSpeed="13.56" duration="87.00" routeLength="935.67" waitingTime="0.00" waitingCount="0" stopTime="0.00" timeLoss="15.67" rerouteNo="0" devices="tripinfo_veh80" vType="delivery" speedFactor="0.98" vaporized=""/>
    <tripinfo id="veh2" depart="2.00" departLane="-48797769_1" departPos="9.05" departSpeed="0.00" departDelay="0.80" arrival="136.00" arrivalLane="48736619_1" arrivalPos="65.02" arrivalSpeed="14.78" duration="134.00" routeLength="1232.36" waitingTime="17.00" waitingCount="2" stopTime="0.00" timeLoss="47.10" rerouteNo="0" devices="tripinfo_veh2" vType="passenger" speedFactor="1.08" vaporized=""/>
    <tripinfo id="veh20" depart="12.00" departLane="-48778517#1_1" departPos="16.49" departSpeed="0.00" departDelay="0.00" arrival="139.00" arrivalLane="40345930_1" arrivalPos="22.03" arrivalSpeed="15.25" duration="127.00" routeLength="1467.78" waitingTime="0.00" waitingCount="0" stopTime="0.00" timeLoss="23.56" rerouteNo="0" devices="tripinfo_veh20" vType="passenger" speedFactor="1.13" vaporized=""/>
    <tripinfo id="veh91" depart="55.00" departLane="-43544046_1" departPos="34.81" departSpeed="0.00" departDelay="0.40" arrival="140.00" arrivalLane="43544624#1_1" arrivalPos="93.66" arrivalSpeed="13.18" duration="85.00" routeLength="832.94" waitingTime="2.00" waitingCount="1" stopTime="0.00" timeLoss="22.36" rerouteNo="0" devices="tripinfo_veh91" vType="delivery" speedFactor="1.01" vaporized=""/>
    <tripinfo id="veh108" depart="65.00" departLane="-48736638#2_1" departPos="26.06" departSpeed="0.00" departDelay="0.20" arrival="141.00" arrivalLane="647741479_1" arrivalPos="102.89" arrivalSpeed="13.78" duration="76.00" routeLength="601.92" waitingTime="13.00" waitingCount="2" stopTime="0.00" timeLoss="30.73" rerouteNo="0" devices="tripinfo_veh108" vType="passenger" speedFactor="1.03" vaporized=""/>
    <tripinfo id="veh37" depart="23.00" departLane="33909936#1_1" departPos="77.01" departSpeed="0.00" departDelay="0.80" arrival="147.00" arrivalLane="43546105#1_1" arrivalPos="277.32" arrivalSpeed="14.43" duration="124.00" routeLength="1376.29" waitingTime="1.00" waitingCount="1" stopTime="0.00" timeLoss="27.63" rerouteNo="0" devices="tripinfo_veh37" vType="passenger" speedFactor="1.06" vaporized=""/>
    <tripinfo id="veh148" depart="89.00" departLane="40314583#5_1" departPos="11.53" departSpeed="0.00" departDelay="0.20" arrival="147.00" arrivalLane="-48736617#1_1" arrivalPos="101.10" arrivalSpeed="11.31" duration="58.00" routeLength="561.44" waitingTime="0.00" waitingCount="0" stopTime="0.00" timeLoss="12.55" rerouteNo="0" devices="tripinfo_veh148" vType="motorcycle" speedFactor="0.97" vaporized=""/>
    <tripinfo id="veh64" depart="39.00" departLane="48778508#0_1" departPos="3.43" departSpeed="0.00" departDelay="0.60" arrival="156.00" arrivalLane="222609002#2_1" arrivalPos="15.40" arrivalSpeed="11.63" duration="117.00" routeLength="995.63" waitingTime="25.00" waitingCount="1" stopTime="0.00" timeLoss="47.65" rerouteNo="0" devices="tripinfo_veh64" vType="passenger" speedFactor="1.08" vaporized=""/>
    <tripinfo id="veh10" depart="6.00" departLane="48797767#2_1" departPos="13.47" departSpeed="0.00" departDelay="0.00" arrival="158.00" arrivalLane="-250295383#4_1" arrivalPos="24.36" arrivalSpeed="14.00" duration="152.00" routeLength="969.76" waitingTime="65.00" waitingCount="1" stopTime="0.00" timeLoss="82.36" rerouteNo="0" devices="tripinfo_veh10" vType="passenger" speedFactor="1.04" vaporized=""/>
    <tripinfo id="veh175" depart="105.00" departLane="-48736666#2_1" departPos="16.13" departSpeed="0.00" departDelay="0.00" arrival="158.00" arrivalLane="40299276#0_1" arrivalPos="12.92" arrivalSpeed="8.73" duration="53.00" routeLength="481.55" waitingTime="0.00" waitingCount="0" stopTime="0.00" timeLoss="15.61" rerouteNo="0" devices="tripinfo_veh175" vType="passenger" speedFactor="1.04" vaporized=""/>
    <tripinfo id="veh0" depart="0.00" departLane="1136284448_1" departPos="30.74" departSpeed="0.00" departDelay="0.00" arrival="160.00" arrivalLane="-48736613#3_1" arrivalPos="41.47" arrivalSpeed="12.89" duration="160.00" routeLength="1685.83" waitingTime="8.00" waitingCount="1" stopTime="0.00" timeLoss="33.78" rerouteNo="0" devices="tripinfo_veh0" vType="motorcycle" speedFactor="0.98" vaporized=""/>
    <tripinfo id="veh39" depart="24.00" departLane="354250407#1_2" departPos="28.56" departSpeed="0.00" departDelay="0.60" arrival="164.00" arrivalLane="-143207982#4_1" arrivalPos="17.42" arrivalSpeed="12.69" duration="140.00" routeLength="1309.50" waitingTime="15.00" waitingCount="2" stopTime="0.00" timeLoss="45.42" rerouteNo="0" devices="tripinfo_veh39" vType="passenger" speedFactor="1.05" vaporized=""/>
    <tripinfo id="veh182" depart="110.00" departLane="-40299739#3_1" departPos="58.71" departSpeed="0.00" departDelay="0.80" arrival="165.00" arrivalLane="-40299271_1" arrivalPos="40.77" arrivalSpeed="12.34" duration="55.00" routeLength="618.36" waitingTime="0.00" waitingCount="0" stopTime="0.00" timeLoss="8.99" rerouteNo="0" devices="tripinfo_veh182" vType="motorcycle" speedFactor="1.00" vaporized=""/>
    <tripinfo id="veh129" depart="79.00" departLane="E13_1" departPos="16.44" departSpeed="0.00" departDelay="1.60" arrival="176.00" arrivalLane="-48736624#1_1" arrivalPos="55.65" arrivalSpeed="12.81" duration="97.00" routeLength="842.10" waitingTime="17.00" waitingCount="1" stopTime="0.00" timeLoss="33.94" rerouteNo="0" devices="tripinfo_veh129" vType="motorcycle" speedFactor="1.01" vaporized=""/>
    <tripinfo id="veh1" depart="1.00" departLane="223883702_1" departPos="12.33" departSpeed="0.00" departDelay="0.40" arrival="179.00" arrivalLane="647755347#0_1" arrivalPos="70.01" arrivalSpeed="14.41" duration="178.00" routeLength="2118.78" waitingTime="0.00" waitingCount="0" stopTime="0.00" timeLoss="32.03" rerouteNo="0" devices="tripinfo_veh1" vType="passenger" speedFactor="1.08" vaporized=""/>
    <tripinfo id="veh46" depart="28.00" departLane="40265775#0_1" departPos="49.08" departSpeed="0.00" departDelay="0.40" arrival="179.00" arrivalLane="43546343#1_1" arrivalPos="44.30" arrivalSpeed="12.83" duration="151.00" routeLength="1751.05" waitingTime="0.00" waitingCount="0" stopTime="0.00" timeLoss="20.90" rerouteNo="0" devices="tripinfo_veh46" vType="passenger" speedFactor="1.00" vaporized=""/>
    <tripinfo id="veh52" depart="32.00" departLane="996489799#2_0" departPos="22.37" departSpeed="0.00" departDelay="0.80" arrival="179.00" arrivalLane="-43544197#8_1" arrivalPos="132.21" arrivalSpeed="11.69" duration="147.00" routeLength="1319.93" waitingTime="4.00" waitingCount="2" stopTime="0.00" timeLoss="31.53" rerouteNo="0" devices="tripinfo_veh52" vType="passenger" speedFactor="0.91" vaporized=""/>
    <tripinfo id="veh207" depart="125.00" departLane="-1158942155_1" departPos="8.48" departSpeed="0.00" departDelay="0.80" arrival="179.00" arrivalLane="859734514#0_0" arrivalPos="30.02" arrivalSpeed="4.22" duration="54.00" routeLength="460.08" waitingTime="0.00" waitingCount="0" stopTime="0.00" timeLoss="11.11" rerouteNo="0" devices="tripinfo_veh207" vType="passenger" speedFactor="0.93" vaporized=""/>
    <tripinfo id="veh44" depart="27.00" departLane="1250915720#4_1" departPos="12.51" departSpeed="0.00" departDelay="0.60" arrival="183.00" arrivalLane="-174818022#2_0" arrivalPos="100.40" arrivalSpeed="4.36" duration="156.00" routeLength="1436.99" waitingTime="1.00" waitingCount="1" stopTime="0.00" timeLoss="22.47" rerouteNo="0" devices="tripinfo_veh44" vType="delivery" speedFactor="0.98" vaporized=""/>
    <tripinfo id="veh58" depart="35.00" departLane="48778524#2_1" departPos="27.63" departSpeed="0.00" departDelay="0.20" arrival="183.00" arrivalLane="354252043_1" arrivalPos="59.61" arrivalSpeed="13.94" duration="148.00" routeLength="1661.42" waitingTime="0.00" waitingCount="0" stopTime="0.00" timeLoss="26.96" rerouteNo="0" devices="tripinfo_veh58" vType="passenger" speedFactor="1.03" vaporized=""/>
    <tripinfo id="veh98" depart="59.00" departLane="-48736655_1" departPos="14.26" departSpeed="0.00" departDelay="0.20" arrival="183.00" arrivalLane="-176279225#1_1" arrivalPos="6.92" arrivalSpeed="12.64" duration="124.00" routeLength="919.78" waitingTime="23.00" waitingCount="2" stopTime="0.00" timeLoss="49.93" rerouteNo="0" devices="tripinfo_veh98" vType="motorcycle" speedFactor="0.94" vaporized=""/>
    <tripinfo id="veh45" depart="27.00" departLane="40330575#1_1" departPos="1.01" departSpeed="0.00" departDelay="0.00" arrival="184.00" arrivalLane="258551297#1_0" arrivalPos="135.94" arrivalSpeed="4.64" duration="157.00" routeLength="1637.86" waitingTime="0.00" waitingCount="0" stopTime="0.00" timeLoss="20.57" rerouteNo="0" devices="tripinfo_veh45" vType="passenger" speedFactor="1.02" vaporized=""/>
    <tripinfo id="veh156" depart="94.00" departLane="40334244#3_1" departPos="107.86" departSpeed="0.00" departDelay="0.40" arrival="186.00" arrivalLane="-353939570#9_1" arrivalPos="72.93" arrivalSpeed="14.31" duration="92.00" routeLength="975.02" waitingTime="0.00" waitingCount="0" stopTime="0.00" timeLoss="22.56" rerouteNo="0" devices="tripinfo_veh156" vType="passenger" speedFactor="1.07" vaporized=""/>
    <tripinfo id="veh73" depart="44.00" departLane="174818022#1_0" departPos="49.28" departSpeed="0.00" departDelay="0.20" arrival="187.00" arrivalLane="40266907#1_1" arrivalPos="33.57" arrivalSpeed="13.86" duration="143.00" routeLength="872.47" waitingTime="19.00" waitingCount="1" stopTime="0.00" timeLoss="46.04" rerouteNo="0" devices="tripinfo_veh73" vType="passenger" speedFactor="1.06" vaporized=""/>
    <tripinfo id="veh81" depart="49.00" departLane="1250915723#0_1" departPos="1.15" departSpeed="0.00" departDelay="0.40" arrival="188.00" arrivalLane="-48778473#2_1" arrivalPos="37.09" arrivalSpeed="12.58" duration="139.00" routeLength="1354.76" waitingTime="0.00" waitingCount="0" stopTime="0.00" timeLoss="28.05" rerouteNo="0" devices="tripinfo_veh81" vType="passenger" speedFactor="1.06" vaporized=""/>
    <tripinfo id="veh72" depart="44.00" departLane="273834906_1" departPos="14.07" departSpeed="0.00" departDelay="0.80" arrival="189.00" arrivalLane="-48797771#2_1" arrivalPos="26.22" arrivalSpeed="12.87" duration="145.00" routeLength="1174.21" waitingTime="27.00" waitingCount="2" stopTime="0.00" timeLoss="60.06" rerouteNo="0" devices="tripinfo_veh72" vType="passenger" speedFactor="1.05" vaporized=""/>
    <tripinfo id="veh15" depart="9.00" departLane="48778457#1_1" departPos="10.02" departSpeed="0.00" departDelay="0.00" arrival="190.00" arrivalLane="48736640#0_1" arrivalPos="55.87" arrivalSpeed="3.95" duration="181.00" routeLength="743.39" waitingTime="0.00" waitingCount="0" stopTime="0.00" timeLoss="14.55" rerouteNo="0" devices="tripinfo_veh15" vType="bicycle" speedFactor="0.80" vaporized=""/>
    <tripinfo id="veh196" depart="118.00" departLane="353939570#2_1" departPos="0.49" departSpeed="0.00" departDelay="0.40" arrival="197.00" arrivalLane="-1250915722#2_1" arrivalPos="3.43" arrivalSpeed="4.44" duration="79.00" routeLength="626.20" waitingTime="0.00" waitingCount="0" stopTime="0.00" timeLoss="16.90" rerouteNo="0" devices="tripinfo_veh196" vType="motorcycle" speedFactor="1.14" vaporized=""/>
    <tripinfo id="veh233" depart="140.00" departLane="E42_2" departPos="103.88" departSpeed="0.00" departDelay="0.20" arrival="197.00" arrivalLane="40330557#0_1" arrivalPos="52.98" arrivalSpeed="14.32" duration="57.00" routeLength="699.36" waitingTime="0.00" waitingCount="0" stopTime="0.00" timeLoss="7.48" rerouteNo="0" devices="tripinfo_veh233" vType="passenger" speedFactor="1.05" vaporized=""/>
    <tripinfo id="veh286" depart="172.00" departLane="43544624#3_1" departPos="98.07" departSpeed="0.00" departDelay="0.40" arrival="199.00" arrivalLane="-43544001#2_1" arrivalPos="52.62" arrivalSpeed="16.72" duration="27.00" routeLength="312.60" waitingTime="0.00" waitingCount="0" stopTime="0.00" timeLoss="7.80" rerouteNo="0" devices="tripinfo_veh286" vType="passenger" speedFactor="1.26" vaporized=""/>
    <tripinfo id="veh8" depart="5.00" departLane="-1251292611_1" departPos="1.57" departSpeed="0.00" departDelay="0.20" arrival="201.00" arrivalLane="-48736624#0_1" arrivalPos="112.70" arrivalSpeed="12.46" duration="196.00" routeLength="1902.88" waitingTime="0.00" waitingCount="0" stopTime="0.00" timeLoss="19.48" rerouteNo="0" devices="tripinfo_veh8" vType="passenger" speedFactor="0.90" vaporized=""/>
    <tripinfo id="veh157" depart="95.00" departLane="48778497_1" departPos="213.13" departSpeed="0.00" departDelay="0.80" arrival="202.00" arrivalLane="-43547017#0_1" arrivalPos="90.36" arrivalSpeed="14.33" duration="107.00" routeLength="1392.35" waitingTime="0.00" waitingCount="0" stopTime="0.00" timeLoss="13.71" rerouteNo="0" devices="tripinfo_veh157" vType="passenger" speedFactor="1.10" vaporized=""/>
    <tripinfo id="veh86" depart="52.00" departLane="92198452#3_1" departPos="46.48" departSpeed="0.00" departDelay="0.40" arrival="204.00" arrivalLane="-383582512#0_0" arrivalPos="35.67" arrivalSpeed="5.32" duration="152.00" routeLength="1518.47" waitingTime="14.00" waitingCount="1" stopTime="0.00" timeLoss="35.81" rerouteNo="0" devices="tripinfo_veh86" vType="delivery" speedFactor="1.03" vaporized=""/>
    <tripinfo id="veh133" depart="80.00" departLane="-48778525#1_1" departPos="12.84" departSpeed="0.00" departDelay="0.20" arrival="205.00" arrivalLane="-43544184#2_1" arrivalPos="44.27" arrivalSpeed="10.04" duration="125.00" routeLength="1138.79" waitingTime="1.00" waitingCount="1" stopTime="0.00" timeLoss="19.96" rerouteNo="0" devices="tripinfo_veh133" vType="passenger" speedFactor="0.80" vaporized=""/>
    <tripinfo id="veh149" depart="90.00" departLane="67712683_1" departPos="57.85" departSpeed="0.00" departDelay="0.60" arrival="207.00" arrivalLane="-43544001#8_1" arrivalPos="45.26" arrivalSpeed="13.18" duration="117.00" routeLength="1250.76" waitingTime="2.00" waitingCount="1" stopTime="0.00" timeLoss="25.87" rerouteNo="0" devices="tripinfo_veh149" vType="passenger" speedFactor="1.03" vaporized=""/>
    <tripinfo id="veh231" depart="139.00" departLane="-43544197#0_1" departPos="11.78" departSpeed="0.00" departDelay="0.40" arrival="208.00" arrivalLane="-647998062_1" arrivalPos="87.04" arrivalSpeed="12.27" duration="69.00" routeLength="632.39" waitingTime="0.00" waitingCount="0" stopTime="0.00" timeLoss="15.29" rerouteNo="0" devices="tripinfo_veh231" vType="passenger" speedFactor="0.95" vaporized=""/>
    <tripinfo id="veh310" depart="186.00" departLane="43544001#12_1" departPos="74.88" departSpeed="0.00" departDelay="0.00" arrival="208.00" arrivalLane="48778527_1" arrivalPos="56.14" arrivalSpeed="15.31" duration="22.00" routeLength="215.78" waitingTime="0.00" waitingCount="0" stopTime="0.00" timeLoss="6.12" rerouteNo="0" devices="tripinfo_veh310" vType="passenger" speedFactor="1.11" vaporized=""/>
    <tripinfo id="veh88" depart="53.00" departLane="-48736624#3_1" departPos="9.14" departSpeed="0.00" departDelay="0.20" arrival="210.00" arrivalLane="-176279225#0_1" arrivalPos="70.91" arrivalSpeed="5.24" duration="157.00" routeLength="1069.28" waitingTime="53.00" waitingCount="3" stopTime="0.00" timeLoss="92.60" rerouteNo="0" devices="tripinfo_veh88" vType="passenger" speedFactor="1.25" vaporized=""/>
    <tripinfo id="veh302" depart="182.00" departLane="-48736639#0_1" departPos="101.60" departSpeed="0.00" departDelay="0.80" arrival="212.00" arrivalLane="-48797770_1" arrivalPos="20.27" arrivalSpeed="11.68" duration="30.00" routeLength="212.91" waitingTime="0.00" waitingCount="0" stopTime="0.00" timeLoss="8.25" rerouteNo="0" devices="tripinfo_veh302" vType="passenger" speedFactor="0.86" vaporized=""/>
    <tripinfo id="veh62" depart="38.00" departLane="43546039#3_1" departPos="26.12" departSpeed="0.00" departDelay="0.80" arrival="213.00" arrivalLane="-383582511#0_0" arrivalPos="95.20" arrivalSpeed="1.45" duration="175.00" routeLength="1312.18" waitingTime="0.00" waitingCount="0" stopTime="0.00" timeLoss="30.79" rerouteNo="0" devices="tripinfo_veh62" vType="passenger" speedFactor="0.90" vaporized=""/>
    <tripinfo id="veh47" depart="29.00" departLane="-43544179#1_1" departPos="17.55" departSpeed="0.00" departDelay="0.80" arrival="216.00" arrivalLane="-647640187_0" arrivalPos="72.26" arrivalSpeed="5.26" duration="187.00" routeLength="2165.96" waitingTime="0.00" waitingCount="0" stopTime="0.00" timeLoss="35.99" rerouteNo="0" devices="tripinfo_veh47" vType="passenger" speedFactor="1.12" vaporized=""/>
    <tripinfo id="veh146" depart="88.00" departLane="-43547256#0_1" departPos="75.37" departSpeed="0.00" departDelay="0.40" arrival="216.00" arrivalLane="43544179#11_1" arrivalPos="85.20" arrivalSpeed="12.27" duration="128.00" routeLength="1540.88" waitingTime="0.00" waitingCount="0" stopTime="0.00" timeLoss="22.92" rerouteNo="0" devices="tripinfo_veh146" vType="motorcycle" speedFactor="1.08" vaporized=""/>
    <tripinfo id="veh154" depart="93.00" departLane="-1250915722#1_1" departPos="36.35" departSpeed="0.00" departDelay="0.60" arrival="217.00" arrivalLane="40305706#2_1" arrivalPos="52.63" arrivalSpeed="16.33" duration="124.00" routeLength="1212.22" waitingTime="1.00" waitingCount="1" stopTime="0.00" timeLoss="31.59" rerouteNo="0" devices="tripinfo_veh154" vType="passenger" speedFactor="1.18" vaporized=""/>
    <personinfo id="ped25" depart="125.00" type="DEFAULT_PEDTYPE" speedFactor="1.01" duration="94.00" waitingTime="0.00" timeLoss="9.64" traveltime="94.00">
        <walk depart="125.00" departPos="0.00" arrival="219.00" arrivalPos="18.89" duration="94.00" routeLength="118.11" timeLoss="9.64" maxSpeed="1.40"/>
    </personinfo>
    <tripinfo id="veh13" depart="8.00" departLane="354252035_1" departPos="100.06" departSpeed="0.00" departDelay="0.20" arrival="225.00" arrivalLane="1250915724#0_1" arrivalPos="12.38" arrivalSpeed="4.48" duration="217.00" routeLength="2357.80" waitingTime="0.00" waitingCount="0" stopTime="0.00" timeLoss="28.27" rerouteNo="0" devices="tripinfo_veh13" vType="passenger" speedFactor="1.02" vaporized=""/>
    <tripinfo id="veh106" depart="64.00" departLane="-48736614#1_1" departPos="93.30" departSpeed="0.00" departDelay="0.40" arrival="225.00" arrivalLane="-43546343#1_1" arrivalPos="46.32" arrivalSpeed="15.11" duration="161.00" routeLength="1733.76" waitingTime="18.00" waitingCount="1" stopTime="0.00" timeLoss="46.33" rerouteNo="0" devices="tripinfo_veh106" vType="passenger" speedFactor="1.12" vaporized=""/>
    <tripinfo id="veh164" depart="99.00" departLane="-492965073#10_2" departPos="0.46" departSpeed="0.00" departDelay="0.60" arrival="225.00" arrivalLane="-40236203#0_1" arrivalPos="83.44" arrivalSpeed="11.36" duration="126.00" routeLength="1078.26" waitingTime="3.00" waitingCount="2" stopTime="0.00" timeLoss="25.93" rerouteNo="0" devices="tripinfo_veh164" vType="passenger" speedFactor="0.87" vaporized=""/>
    <tripinfo id="veh28" depart="17.00" departLane="-E11_2" departPos="1.55" departSpeed="0.00" departDelay="0.20" arrival="229.00" arrivalLane="40299241#3_1" arrivalPos="62.98" arrivalSpeed="14.44" duration="212.00" routeLength="2627.37" waitingTime="13.00" waitingCount="1" stopTime="0.00" timeLoss="38.77" rerouteNo="0" devices="tripinfo_veh28" vType="passenger" speedFactor="1.10" vaporized=""/>
    <tripinfo id="veh172" depart="104.00" departLane="222609002#1_1" departPos="16.84" departSpeed="0.00" departDelay="0.80" arrival="231.00" arrivalLane="43544179#11_1" arrivalPos="85.20" arrivalSpeed="11.00" duration="127.00" routeLength="1157.11" waitingTime="0.00" waitingCount="0" stopTime="0.00" timeLoss="18.83" rerouteNo="0" devices="tripinfo_veh172" vType="passenger" speedFactor="0.80" vaporized=""/>
    <tripinfo id="veh199" depart="120.00" departLane="-647755347#1_1" departPos="8.48" departSpeed="0.00" departDelay="0.60" arrival="231.00" arrivalLane="48778493#2_1" arrivalPos="44.65" arrivalSpeed="13.79" duration="111.00" routeLength="1081.37" waitingTime="0.00" waitingCount="0" stopTime="0.00" timeLoss="27.13" rerouteNo="0" devices="tripinfo_veh199" vType="emergency" speedFactor="1.00" vaporized=""/>
    <tripinfo id="veh177" depart="107.00" departLane="176279225#3_1" departPos="3.24" departSpeed="0.00" departDelay="0.80" arrival="232.00" arrivalLane="-945793486#0_0" arrivalPos="6.00" arrivalSpeed="5.94" duration="125.00" routeLength="1212.10" waitingTime="1.00" waitingCount="1" stopTime="0.00" timeLoss="35.14" rerouteNo="0" devices="tripinfo_veh177" vType="motorcycle" speedFactor="1.10" vaporized=""/>
    <tripinfo id="veh63" depart="38.00" departLane="48736624#0_1" departPos="111.06" departSpeed="0.00" departDelay="0.20" arrival="235.00" arrivalLane="222605084#8_1" arrivalPos="2.30" arrivalSpeed="5.19" duration="197.00" routeLength="1813.80" waitingTime="15.00" waitingCount="1" stopTime="0.00" timeLoss="41.70" rerouteNo="0" devices="tripinfo_veh63" vType="passenger" speedFactor="1.02" vaporized=""/>
    <tripinfo id="veh100" depart="60.00" departLane="92198453#4_1" departPos="60.49" departSpeed="0.00" departDelay="0.00" arrival="237.00" arrivalLane="-578560104#3_1" arrivalPos="122.64" arrivalSpeed="13.98" duration="177.00" routeLength="1619.91" waitingTime="36.00" waitingCount="1" stopTime="0.00" timeLoss="60.79" rerouteNo="0" devices="tripinfo_veh100" vType="passenger" speedFactor="1.02" vaporized=""/>
    <tripinfo id="veh238" depart="143.00" departLane="-43546105#0_1" departPos="85.09" departSpeed="0.00" departDelay="0.20" arrival="238.00" arrivalLane="-40236203#3_1" arrivalPos="78.82" arrivalSpeed="13.02" duration="95.00" routeLength="1028.31" waitingTime="0.00" waitingCount="0" stopTime="0.00" timeLoss="18.74" rerouteNo="0" devices="tripinfo_veh238" vType="passenger" speedFactor="1.03" vaporized=""/>
    <tripinfo id="veh285" depart="175.00" departLane="43544179#10_1" departPos="7.49" departSpeed="0.00" departDelay="4.00" arrival="240.00" arrivalLane="43544197#6_1" arrivalPos="40.81" arrivalSpeed="13.23" duration="65.00" routeLength="675.63" waitingTime="0.00" waitingCount="0" stopTime="0.00" timeLoss="12.11" rerouteNo="0" devices="tripinfo_veh285" vType="passenger" speedFactor="0.98" vaporized=""/>
    <tripinfo id="veh131" depart="79.00" departLane="-492965073#8_1" departPos="74.54" departSpeed="0.00" departDelay="0.40" arrival="241.00" arrivalLane="-43573478_1" arrivalPos="180.41" arrivalSpeed="13.38" duration="162.00" routeLength="1249.43" waitingTime="40.00" waitingCount="1" stopTime="0.00" timeLoss="66.20" rerouteNo="0" devices="tripinfo_veh131" vType="delivery" speedFactor="1.00" vaporized=""/>
    <tripinfo id="veh163" depart="98.00" departLane="-992542691_0" departPos="14.68" departSpeed="0.00" departDelay="0.20" arrival="246.00" arrivalLane="-250295380#0_1" arrivalPos="168.50" arrivalSpeed="10.75" duration="148.00" routeLength="1430.88" waitingTime="0.00" waitingCount="0" stopTime="0.00" timeLoss="19.30" rerouteNo="0" devices="tripinfo_veh163" vType="passenger" speedFactor="0.83" vaporized=""/>