<?xml version="1.0" encoding="UTF-8"?>

<!-- generated on 2025-06-15 22:32:51 by Eclipse SUMO sumo Version 1.22.0
<sumoConfiguration xmlns:xsi="http://www.w3.org/2001/XMLSchema-instance" xsi:noNamespaceSchemaLocation="http://sumo.dlr.de/xsd/sumoConfiguration.xsd">

    <input>
        <net-file value="E:/licenta/oras-mediu/2025-06-05-11-45-23\osm.net.xml"/>
        <route-files value="E:/licenta/oras-mediu/2025-06-05-11-45-23\full.rou.xml,E:/licenta/oras-mediu/2025-06-05-11-45-23\ ped.rou.xml,E:/licenta/oras-mediu/2025-06-05-11-45-23\ truck.rou.xml"/>
        <additional-files value="E:/licenta/oras-mediu/2025-06-05-11-45-23\osm.poly.xml,E:/licenta/oras-mediu/2025-06-05-11-45-23\ vtypes.xml"/>
    </input>

    <output>
        <summary-output value="E:/licenta/oras-mediu/2025-06-05-11-45-23\summary.xml"/>
        <tripinfo-output value="E:/licenta/oras-mediu/2025-06-05-11-45-23\tripinfo.xml"/>
    </output>

    <processing>
        <ignore-route-errors value="true"/>
        <tls.actuated.jam-threshold value="30"/>
    </processing>

    <routing>
        <device.rerouting.adaptation-steps value="18"/>
        <device.rerouting.adaptation-interval value="10"/>
    </routing>

    <report>
        <verbose value="true"/>
        <duration-log.statistics value="true"/>
        <no-step-log value="true"/>
    </report>

    <traci_server>
        <remote-port value="50592"/>
    </traci_server>

    <gui_only>
        <gui-settings-file value="E:/licenta/oras-mediu/2025-06-05-11-45-23\osm.view.xml"/>
    </gui_only>

</sumoConfiguration>
-->

<tripinfos xmlns:xsi="http://www.w3.org/2001/XMLSchema-instance" xsi:noNamespaceSchemaLocation="http://sumo.dlr.de/xsd/tripinfo_file.xsd">
    <tripinfo id="veh28" depart="21.00" departLane="48797770_1" departPos="13.76" departSpeed="0.00" departDelay="0.84" arrival="72.00" arrivalLane="-304695350#0_1" arrivalPos="0.20" arrivalSpeed="6.85" duration="51.00" routeLength="390.00" waitingTime="0.00" waitingCount="0" stopTime="0.00" timeLoss="13.20" rerouteNo="0" devices="tripinfo_veh28" vType="passenger" speedFactor="1.10" vaporized=""/>
    <tripinfo id="veh76" depart="55.00" departLane="-48736644_1" departPos="9.44" departSpeed="0.00" departDelay="0.28" arrival="87.00" arrivalLane="250295383#1_1" arrivalPos="60.77" arrivalSpeed="12.63" duration="32.00" routeLength="264.37" waitingTime="0.00" waitingCount="0" stopTime="0.00" timeLoss="10.45" rerouteNo="0" devices="tripinfo_veh76" vType="emergency" speedFactor="1.00" vaporized=""/>
    <tripinfo id="veh40" depart="29.00" departLane="-43544138#1_1" departPos="16.51" departSpeed="0.00" departDelay="0.20" arrival="92.00" arrivalLane="-143207979#0_1" arrivalPos="24.79" arrivalSpeed="13.43" duration="63.00" routeLength="679.30" waitingTime="0.00" waitingCount="0" stopTime="0.00" timeLoss="18.89" rerouteNo="0" devices="tripinfo_veh40" vType="passenger" speedFactor="1.17" vaporized=""/>
    <tripinfo id="veh14" depart="11.00" departLane="40330571#1_1" departPos="0.68" departSpeed="0.00" departDelay="0.92" arrival="97.00" arrivalLane="-40345956#0_1" arrivalPos="91.65" arrivalSpeed="12.98" duration="86.00" routeLength="948.63" waitingTime="0.00" waitingCount="0" stopTime="0.00" timeLoss="16.07" rerouteNo="0" devices="tripinfo_veh14" vType="passenger" speedFactor="1.02" vaporized=""/>
    <tripinfo id="veh30" depart="22.00" departLane="383582854#0_0" departPos="5.46" departSpeed="0.00" departDelay="0.40" arrival="101.00" arrivalLane="-48736620#0_2" arrivalPos="29.26" arrivalSpeed="13.30" duration="79.00" routeLength="565.75" waitingTime="10.00" waitingCount="1" stopTime="0.00" timeLoss="27.70" rerouteNo="0" devices="tripinfo_veh30" vType="passenger" speedFactor="1.03" vaporized=""/>
    <tripinfo id="veh92" depart="67.00" departLane="222605084#5_1" departPos="5.23" departSpeed="0.00" departDelay="0.76" arrival="103.00" arrivalLane="945793490#4_1" arrivalPos="51.67" arrivalSpeed="4.16" duration="36.00" routeLength="163.03" waitingTime="0.00" waitingCount="0" stopTime="0.00" timeLoss="5.14" rerouteNo="0" devices="tripinfo_veh92" vType="passenger" speedFactor="0.97" vaporized=""/>
    <tripinfo id="veh16" depart="12.00" departLane="48778505#1_1" departPos="36.51" departSpeed="0.00" departDelay="0.48" arrival="112.00" arrivalLane="1136289991_1" arrivalPos="31.14" arrivalSpeed="6.98" duration="100.00" routeLength="955.31" waitingTime="0.00" waitingCount="0" stopTime="0.00" timeLoss="15.12" rerouteNo="0" devices="tripinfo_veh16" vType="passenger" speedFactor="0.89" vaporized=""/>
    <tripinfo id="veh1" depart="1.00" departLane="353939585#2_2" departPos="1.35" departSpeed="0.00" departDelay="0.28" arrival="120.00" arrivalLane="-222609002#3_1" arrivalPos="89.31" arrivalSpeed="8.18" duration="119.00" routeLength="1079.22" waitingTime="0.00" waitingCount="0" stopTime="0.00" timeLoss="45.28" rerouteNo="0" devices="tripinfo_veh1" vType="passenger" speedFactor="1.08" vaporized=""/>
    <personinfo id="ped23" depart="115.00" type="DEFAULT_PEDTYPE" speedFactor="1.11" duration="7.00" waitingTime="0.00" timeLoss="0.97" traveltime="7.00">
        <walk depart="115.00" departPos="0.00" arrival="122.00" arrivalPos="9.27" duration="7.00" routeLength="9.27" timeLoss="0.97" maxSpeed="1.54"/>
    </personinfo>
    <tripinfo id="veh61" depart="44.00" departLane="43544184#1_1" departPos="0.16" departSpeed="0.00" departDelay="0.08" arrival="133.00" arrivalLane="43544179#12_1" arrivalPos="77.06" arrivalSpeed="14.00" duration="89.00" routeLength="1025.27" waitingTime="0.00" waitingCount="0" stopTime="0.00" timeLoss="18.45" rerouteNo="0" devices="tripinfo_veh61" vType="passenger" speedFactor="1.09" vaporized=""/>
    <tripinfo id="veh87" depart="63.00" departLane="-48778453_1" departPos="0.36" departSpeed="0.00" departDelay="0.36" arrival="138.00" arrivalLane="48736644_1" arrivalPos="151.25" arrivalSpeed="10.98" duration="75.00" routeLength="670.16" waitingTime="0.00" waitingCount="0" stopTime="0.00" timeLoss="14.38" rerouteNo="0" devices="tripinfo_veh87" vType="passenger" speedFactor="0.87" vaporized=""/>
    <tripinfo id="veh83" depart="60.00" departLane="48736617#1_1" departPos="100.50" departSpeed="0.00" departDelay="0.24" arrival="141.00" arrivalLane="-383582854#0_0" arrivalPos="13.09" arrivalSpeed="4.82" duration="81.00" routeLength="788.36" waitingTime="0.00" waitingCount="0" stopTime="0.00" timeLoss="11.49" rerouteNo="0" devices="tripinfo_veh83" vType="passenger" speedFactor="0.98" vaporized=""/>
    <tripinfo id="veh20" depart="15.00" departLane="40304754#2_1" departPos="67.72" departSpeed="0.00" departDelay="0.60" arrival="143.00" arrivalLane="-1205541342_1" arrivalPos="22.37" arrivalSpeed="5.62" duration="128.00" routeLength="1495.68" waitingTime="0.00" waitingCount="0" stopTime="0.00" timeLoss="22.81" rerouteNo="0" devices="tripinfo_veh20" vType="passenger" speedFactor="1.13" vaporized=""/>
    <tripinfo id="veh21" depart="16.00" departLane="250295382_1" departPos="102.32" departSpeed="0.00" departDelay="0.88" arrival="144.00" arrivalLane="647610982#0_1" arrivalPos="197.95" arrivalSpeed="11.81" duration="128.00" routeLength="1108.97" waitingTime="14.00" waitingCount="2" stopTime="0.00" timeLoss="35.58" rerouteNo="0" devices="tripinfo_veh21" vType="passenger" speedFactor="0.89" vaporized=""/>
    <tripinfo id="veh46" depart="34.00" departLane="-1136289991_1" departPos="15.60" departSpeed="0.00" departDelay="0.88" arrival="144.00" arrivalLane="-48778508#1_1" arrivalPos="98.43" arrivalSpeed="13.46" duration="110.00" routeLength="1055.93" waitingTime="3.00" waitingCount="2" stopTime="0.00" timeLoss="28.24" rerouteNo="0" devices="tripinfo_veh46" vType="delivery" speedFactor="0.98" vaporized=""/>
    <tripinfo id="veh5" depart="4.00" departLane="176279225#1_1" departPos="5.16" departSpeed="0.00" departDelay="0.40" arrival="147.00" arrivalLane="1136301813_1" arrivalPos="18.07" arrivalSpeed="12.56" duration="143.00" routeLength="868.96" waitingTime="64.00" waitingCount="1" stopTime="0.00" timeLoss="81.11" rerouteNo="0" devices="tripinfo_veh5" vType="delivery" speedFactor="1.05" vaporized=""/>
    <tripinfo id="veh11" depart="8.00" departLane="48778461#0_1" departPos="28.40" departSpeed="0.00" departDelay="0.08" arrival="148.00" arrivalLane="898519021_1" arrivalPos="62.04" arrivalSpeed="13.21" duration="140.00" routeLength="1187.08" waitingTime="15.00" waitingCount="3" stopTime="0.00" timeLoss="51.92" rerouteNo="0" devices="tripinfo_veh11" vType="passenger" speedFactor="1.04" vaporized=""/>
    <tripinfo id="veh105" depart="76.00" departLane="43573769#1_1" departPos="4.59" departSpeed="0.00" departDelay="0.40" arrival="150.00" arrivalLane="33909936#3_1" arrivalPos="24.72" arrivalSpeed="13.72" duration="74.00" routeLength="619.76" waitingTime="1.00" waitingCount="1" stopTime="0.00" timeLoss="25.88" rerouteNo="0" devices="tripinfo_veh105" vType="motorcycle" speedFactor="1.10" vaporized=""/>
    <tripinfo id="veh59" depart="43.00" departLane="-48797767#1_1" departPos="20.82" departSpeed="0.00" departDelay="0.52" arrival="152.00" arrivalLane="48778443#0_1" arrivalPos="2.86" arrivalSpeed="5.85" duration="109.00" routeLength="943.49" waitingTime="11.00" waitingCount="1" stopTime="0.00" timeLoss="38.23" rerouteNo="0" devices="tripinfo_veh59" vType="passenger" speedFactor="1.03" vaporized=""/>
    <tripinfo id="veh75" depart="54.00" departLane="-40304754#2_1" departPos="15.17" departSpeed="0.00" departDelay="0.00" arrival="154.00" arrivalLane="859732802#0_0" arrivalPos="5.59" arrivalSpeed="5.81" duration="100.00" routeLength="1049.75" waitingTime="0.00" waitingCount="0" stopTime="0.00" timeLoss="25.77" rerouteNo="0" devices="tripinfo_veh75" vType="passenger" speedFactor="1.10" vaporized=""/>
    <tripinfo id="veh24" depart="18.00" departLane="43547256#0_1" departPos="214.25" departSpeed="0.00" departDelay="0.72" arrival="162.00" arrivalLane="-43547017#0_1" arrivalPos="90.36" arrivalSpeed="13.74" duration="144.00" routeLength="1628.61" waitingTime="0.00" waitingCount="0" stopTime="0.00" timeLoss="22.74" rerouteNo="0" devices="tripinfo_veh24" vType="passenger" speedFactor="0.99" vaporized=""/>
    <tripinfo id="veh48" depart="35.00" departLane="470207092#0_1" departPos="21.34" departSpeed="0.00" departDelay="0.44" arrival="166.00" arrivalLane="-40299264#2_1" arrivalPos="30.73" arrivalSpeed="13.03" duration="131.00" routeLength="1024.92" waitingTime="10.00" waitingCount="2" stopTime="0.00" timeLoss="32.13" rerouteNo="0" devices="tripinfo_veh48" vType="passenger" speedFactor="1.00" vaporized=""/>
    <tripinfo id="veh110" depart="80.00" departLane="984521612#1_0" departPos="5.05" departSpeed="0.00" departDelay="0.80" arrival="169.00" arrivalLane="-48797765#1_1" arrivalPos="28.98" arrivalSpeed="13.70" duration="89.00" routeLength="752.86" waitingTime="9.00" waitingCount="2" stopTime="0.00" timeLoss="29.99" rerouteNo="0" devices="tripinfo_veh110" vType="passenger" speedFactor="1.01" vaporized=""/>
    <personinfo id="ped5" depart="25.00" type="DEFAULT_PEDTYPE" speedFactor="0.88" duration="145.00" waitingTime="0.00" timeLoss="15.13" traveltime="145.00">
        <walk depart="25.00" departPos="0.00" arrival="170.00" arrivalPos="10.61" duration="145.00" routeLength="158.42" timeLoss="15.13" maxSpeed="1.22"/>
    </personinfo>
    <tripinfo id="veh146" depart="106.00" departLane="1136301818_1" departPos="6.72" departSpeed="0.00" departDelay="0.88" arrival="172.00" arrivalLane="-1135854143_1" arrivalPos="57.62" arrivalSpeed="8.62" duration="66.00" routeLength="568.13" waitingTime="0.00" waitingCount="0" stopTime="0.00" timeLoss="18.90" rerouteNo="0" devices="tripinfo_veh146" vType="motorcycle" speedFactor="1.08" vaporized=""/>
    <tripinfo id="veh57" depart="42.00" departLane="-1136301812#0_1" departPos="29.30" departSpeed="0.00" departDelay="0.96" arrival="173.00" arrivalLane="996489799#0_0" arrivalPos="0.20" arrivalSpeed="5.16" duration="131.00" routeLength="1188.48" waitingTime="4.00" waitingCount="2" stopTime="0.00" timeLoss="41.61" rerouteNo="0" devices="tripinfo_veh57" vType="passenger" speedFactor="1.06" vaporized=""/>
    <tripinfo id="veh64" depart="47.00" departLane="48778494#0_1" departPos="47.89" departSpeed="0.00" departDelay="0.92" arrival="175.00" arrivalLane="-222605084#8_1" arrivalPos="2.30" arrivalSpeed="5.13" duration="128.00" routeLength="1124.22" waitingTime="0.00" waitingCount="0" stopTime="0.00" timeLoss="31.50" rerouteNo="0" devices="tripinfo_veh64" vType="passenger" speedFactor="1.08" vaporized=""/>
    <tripinfo id="veh0" depart="0.00" departLane="-859732802#0_0" departPos="4.99" departSpeed="0.00" departDelay="0.00" arrival="178.00" arrivalLane="43547017#4_1" arrivalPos="10.44" arrivalSpeed="12.82" duration="178.00" routeLength="1887.98" waitingTime="0.00" waitingCount="0" stopTime="0.00" timeLoss="31.25" rerouteNo="0" devices="tripinfo_veh0" vType="motorcycle" speedFactor="0.98" vaporized=""/>
    <tripinfo id="veh3" depart="3.00" departLane="143207979#0_1" departPos="18.43" departSpeed="0.00" departDelay="0.84" arrival="181.00" arrivalLane="-671642318#0_1" arrivalPos="76.33" arrivalSpeed="12.24" duration="178.00" routeLength="1911.86" waitingTime="0.00" waitingCount="0" stopTime="0.00" timeLoss="25.19" rerouteNo="0" devices="tripinfo_veh3" vType="passenger" speedFactor="0.94" vaporized=""/>
    <tripinfo id="veh88" depart="64.00" departLane="383582496_0" departPos="161.24" departSpeed="0.00" departDelay="0.64" arrival="186.00" arrivalLane="-492965073#7_1" arrivalPos="34.78" arrivalSpeed="13.78" duration="122.00" routeLength="1516.64" waitingTime="0.00" waitingCount="0" stopTime="0.00" timeLoss="10.23" rerouteNo="0" devices="tripinfo_veh88" vType="delivery" speedFactor="1.01" vaporized=""/>
    <tripinfo id="veh176" depart="127.00" departLane="945793486#1_0" departPos="3.65" departSpeed="0.00" departDelay="0.28" arrival="188.00" arrivalLane="40266907#1_1" arrivalPos="33.57" arrivalSpeed="14.79" duration="61.00" routeLength="582.92" waitingTime="0.00" waitingCount="0" stopTime="0.00" timeLoss="14.60" rerouteNo="0" devices="tripinfo_veh176" vType="motorcycle" speedFactor="1.10" vaporized=""/>
    <tripinfo id="veh95" depart="69.00" departLane="250295379_1" departPos="16.15" departSpeed="0.00" departDelay="0.60" arrival="190.00" arrivalLane="40269009#2_1" arrivalPos="65.05" arrivalSpeed="14.76" duration="121.00" routeLength="1163.40" waitingTime="16.00" waitingCount="1" stopTime="0.00" timeLoss="42.53" rerouteNo="0" devices="tripinfo_veh95" vType="passenger" speedFactor="1.13" vaporized=""/>
    <tripinfo id="veh145" depart="105.00" departLane="-1136283379#1_1" departPos="30.07" departSpeed="0.00" departDelay="0.60" arrival="190.00" arrivalLane="-43547296#1_1" arrivalPos="15.85" arrivalSpeed="12.14" duration="85.00" routeLength="794.48" waitingTime="3.00" waitingCount="1" stopTime="0.00" timeLoss="21.46" rerouteNo="0" devices="tripinfo_veh145" vType="motorcycle" speedFactor="0.98" vaporized=""/>
    <tripinfo id="veh191" depart="138.00" departLane="48778524#1_1" departPos="6.66" departSpeed="0.00" departDelay="0.48" arrival="191.00" arrivalLane="-48778524#0_1" arrivalPos="98.21" arrivalSpeed="7.87" duration="53.00" routeLength="470.34" waitingTime="0.00" waitingCount="0" stopTime="0.00" timeLoss="18.29" rerouteNo="0" devices="tripinfo_veh191" vType="delivery" speedFactor="1.08" vaporized=""/>
    <tripinfo id="veh70" depart="51.00" departLane="-48736617#1_1" departPos="23.02" departSpeed="0.00" departDelay="0.60" arrival="193.00" arrivalLane="647640187_0" arrivalPos="72.27" arrivalSpeed="5.19" duration="142.00" routeLength="1392.44" waitingTime="0.00" waitingCount="0" stopTime="0.00" timeLoss="34.60" rerouteNo="0" devices="tripinfo_veh70" vType="passenger" speedFactor="1.05" vaporized=""/>
    <tripinfo id="veh49" depart="36.00" departLane="-48736605_1" departPos="45.06" departSpeed="0.00" departDelay="0.72" arrival="196.00" arrivalLane="48736656#0_1" arrivalPos="64.41" arrivalSpeed="15.51" duration="160.00" routeLength="1653.63" waitingTime="24.00" waitingCount="1" stopTime="0.00" timeLoss="49.09" rerouteNo="0" devices="tripinfo_veh49" vType="passenger" speedFactor="1.12" vaporized=""/>
    <tripinfo id="veh175" depart="126.00" departLane="-40330571#1_1" departPos="1.95" departSpeed="0.00" departDelay="0.00" arrival="197.00" arrivalLane="-1250915721#0_1" arrivalPos="14.93" arrivalSpeed="5.32" duration="71.00" routeLength="463.99" waitingTime="10.00" waitingCount="1" stopTime="0.00" timeLoss="22.76" rerouteNo="0" devices="tripinfo_veh175" vType="passenger" speedFactor="1.17" vaporized=""/>
    <tripinfo id="veh142" depart="103.00" departLane="647998063#0_1" departPos="189.36" departSpeed="0.00" departDelay="0.76" arrival="201.00" arrivalLane="143207979#5_1" arrivalPos="42.32" arrivalSpeed="12.83" duration="98.00" routeLength="1021.03" waitingTime="0.00" waitingCount="0" stopTime="0.00" timeLoss="17.31" rerouteNo="0" devices="tripinfo_veh142" vType="passenger" speedFactor="0.96" vaporized=""/>
    <tripinfo id="veh67" depart="49.00" departLane="40269009#0_1" departPos="15.39" departSpeed="0.00" departDelay="0.76" arrival="209.00" arrivalLane="48736639#1_1" arrivalPos="23.89" arrivalSpeed="13.31" duration="160.00" routeLength="1131.62" waitingTime="34.00" waitingCount="1" stopTime="0.00" timeLoss="65.71" rerouteNo="0" devices="tripinfo_veh67" vType="passenger" speedFactor="1.01" vaporized=""/>
    <tripinfo id="veh66" depart="48.00" departLane="671642313_1" departPos="4.09" departSpeed="0.00" departDelay="0.48" arrival="212.00" arrivalLane="-43544197#7_1" arrivalPos="49.46" arrivalSpeed="13.36" duration="164.00" routeLength="1947.13" waitingTime="0.00" waitingCount="0" stopTime="0.00" timeLoss="17.41" rerouteNo="0" devices="tripinfo_veh66" vType="passenger" speedFactor="0.98" vaporized=""/>
    <personinfo id="ped21" depart="105.00" type="DEFAULT_PEDTYPE" speedFactor="0.97" duration="108.00" waitingTime="0.00" timeLoss="12.43" traveltime="108.00">
        <walk depart="105.00" departPos="0.00" arrival="213.00" arrivalPos="20.77" duration="108.00" routeLength="128.43" timeLoss="12.43" maxSpeed="1.34"/>
    </personinfo>
    <tripinfo id="veh72" depart="52.00" departLane="251916699#2.34_1" departPos="9.34" departSpeed="0.00" departDelay="0.16" arrival="217.00" arrivalLane="40236203#4_1" arrivalPos="312.22" arrivalSpeed="11.21" duration="165.00" routeLength="1244.66" waitingTime="37.00" waitingCount="1" stopTime="0.00" timeLoss="57.41" rerouteNo="0" devices="tripinfo_veh72" vType="passenger" speedFactor="0.86" vaporized=""/>
    <tripinfo id="veh19" depart="14.00" departLane="-289113801_1" departPos="92.27" departSpeed="0.00" departDelay="0.32" arrival="219.00" arrivalLane="-43546519#0_1" arrivalPos="426.07" arrivalSpeed="13.51" duration="205.00" routeLength="2503.74" waitingTime="0.00" waitingCount="0" stopTime="0.00" timeLoss="27.50" rerouteNo="0" devices="tripinfo_veh19" vType="passenger" speedFactor="1.03" vaporized=""/>
    <tripinfo id="veh100" depart="72.00" departLane="-1136301819_1" departPos="11.14" departSpeed="0.00" departDelay="0.00" arrival="219.00" arrivalLane="-176279225#0_2" arrivalPos="70.91" arrivalSpeed="10.28" duration="147.00" routeLength="1056.18" waitingTime="47.00" waitingCount="1" stopTime="0.00" timeLoss="69.94" rerouteNo="0" devices="tripinfo_veh100" vType="passenger" speedFactor="1.02" vaporized=""/>
    <tripinfo id="veh63" depart="46.00" departLane="43546648#0_1" departPos="95.02" departSpeed="0.00" departDelay="0.64" arrival="221.00" arrivalLane="43546115_1" arrivalPos="162.45" arrivalSpeed="13.96" duration="175.00" routeLength="1771.83" waitingTime="4.00" waitingCount="2" stopTime="0.00" timeLoss="43.11" rerouteNo="0" devices="tripinfo_veh63" vType="passenger" speedFactor="1.02" vaporized=""/>
    <tripinfo id="veh7" depart="6.00" departLane="-43544202#2_1" departPos="96.88" departSpeed="0.00" departDelay="0.96" arrival="223.00" arrivalLane="-1250915721#2_1" arrivalPos="19.96" arrivalSpeed="5.53" duration="217.00" routeLength="2577.79" waitingTime="0.00" waitingCount="0" stopTime="0.00" timeLoss="34.47" rerouteNo="0" devices="tripinfo_veh7" vType="passenger" speedFactor="1.12" vaporized=""/>
    <tripinfo id="veh51" depart="37.00" departLane="48778443#2_1" departPos="1.31" departSpeed="0.00" departDelay="0.28" arrival="223.00" arrivalLane="40299241#2_1" arrivalPos="144.50" arrivalSpeed="13.13" duration="186.00" routeLength="1307.57" waitingTime="55.00" waitingCount="2" stopTime="0.00" timeLoss="81.25" rerouteNo="0" devices="tripinfo_veh51" vType="delivery" speedFactor="0.99" vaporized=""/>
    <tripinfo id="veh68" depart="49.00" departLane="-40330575#2_1" departPos="22.60" departSpeed="0.00" departDelay="0.04" arrival="226.00" arrivalLane="43544138#8_1" arrivalPos="5.97" arrivalSpeed="10.13" duration="177.00" routeLength="1846.32" waitingTime="0.00" waitingCount="0" stopTime="0.00" timeLoss="29.57" rerouteNo="0" devices="tripinfo_veh68" vType="motorcycle" speedFactor="0.94" vaporized=""/>
    <tripinfo id="veh202" depart="146.00" departLane="-671642327_0" departPos="196.59" departSpeed="0.00" departDelay="0.56" arrival="226.00" arrivalLane="1250915721#0_1" arrivalPos="14.94" arrivalSpeed="4.91" duration="80.00" routeLength="716.04" waitingTime="0.00" waitingCount="0" stopTime="0.00" timeLoss="10.58" rerouteNo="0" devices="tripinfo_veh202" vType="passenger" speedFactor="1.02" vaporized=""/>
    <tripinfo id="veh9" depart="7.00" departLane="-996489799#0_0" departPos="0.18" departSpeed="0.00" departDelay="0.52" arrival="227.00" arrivalLane="222605087#5_1" arrivalPos="44.15" arrivalSpeed="3.95" duration="220.00" routeLength="1730.79" waitingTime="2.00" waitingCount="1" stopTime="0.00" timeLoss="40.26" rerouteNo="0" devices="tripinfo_veh9" vType="passenger" speedFactor="0.90" vaporized=""/>
    <tripinfo id="veh282" depart="204.00" departLane="383582518#0_0" departPos="42.05" departSpeed="0.00" departDelay="0.96" arrival="227.00" arrivalLane="43544179#10_1" arrivalPos="22.72" arrivalSpeed="11.60" duration="23.00" routeLength="175.09" waitingTime="0.00" waitingCount="0" stopTime="0.00" timeLoss="5.83" rerouteNo="0" devices="tripinfo_veh282" vType="passenger" speedFactor="1.05" vaporized=""/>
    <tripinfo id="veh58" depart="42.00" departLane="-992542691_0" departPos="12.09" departSpeed="0.00" departDelay="0.24" arrival="228.00" arrivalLane="-43544179#8_1" arrivalPos="43.05" arrivalSpeed="14.50" duration="186.00" routeLength="2003.04" waitingTime="18.00" waitingCount="1" stopTime="0.00" timeLoss="51.08" rerouteNo="0" devices="tripinfo_veh58" vType="passenger" speedFactor="1.12" vaporized=""/>
    <tripinfo id="veh148" depart="107.00" departLane="43546570#1_1" departPos="54.01" departSpeed="0.00" departDelay="0.44" arrival="228.00" arrivalLane="984505045_0" arrivalPos="60.60" arrivalSpeed="5.64" duration="121.00" routeLength="1187.79" waitingTime="0.00" waitingCount="0" stopTime="0.00" timeLoss="26.00" rerouteNo="0" devices="tripinfo_veh148" vType="passenger" speedFactor="1.03" vaporized=""/>
    <tripinfo id="veh162" depart="117.00" departLane="-43547017#1_1" departPos="10.74" departSpeed="0.00" departDelay="0.36" arrival="231.00" arrivalLane="43544001#3_1" arrivalPos="41.26" arrivalSpeed="11.77" duration="114.00" routeLength="1170.28" waitingTime="0.00" waitingCount="0" stopTime="0.00" timeLoss="19.97" rerouteNo="0" devices="tripinfo_veh162" vType="delivery" speedFactor="0.94" vaporized=""/>
    <tripinfo id="veh34" depart="25.00" departLane="530103975#1_1" departPos="6.49" departSpeed="0.00" departDelay="0.52" arrival="232.00" arrivalLane="-383582496_0" arrivalPos="167.36" arrivalSpeed="1.65" duration="207.00" routeLength="1764.35" waitingTime="0.00" waitingCount="0" stopTime="0.00" timeLoss="35.00" rerouteNo="0" devices="tripinfo_veh34" vType="passenger" speedFactor="1.04" vaporized=""/>
    <tripinfo id="veh37" depart="27.00" departLane="-1136283379#0_1" departPos="3.91" departSpeed="0.00" departDelay="0.36" arrival="232.00" arrivalLane="43545645#1_1" arrivalPos="98.66" arrivalSpeed="12.71" duration="205.00" routeLength="2033.06" waitingTime="3.00" waitingCount="1" stopTime="0.00" timeLoss="34.41" rerouteNo="0" devices="tripinfo_veh37" vType="passenger" speedFactor="0.95" vaporized=""/>
    <personinfo id="ped7" depart="35.00" type="DEFAULT_PEDTYPE" speedFactor="0.95" duration="198.00" waitingTime="0.00" timeLoss="22.83" traveltime="198.00">
        <walk depart="35.00" departPos="0.00" arrival="233.00" arrivalPos="31.41" duration="198.00" routeLength="230.86" timeLoss="22.83" maxSpeed="1.32"/>
    </personinfo>
    <tripinfo id="veh150" depart="108.00" departLane="-1136289991_1" departPos="11.60" departSpeed="0.00" departDelay="0.00" arrival="236.00" arrivalLane="48778431#10_1" arrivalPos="349.08" arrivalSpeed="12.90" duration="128.00" routeLength="1183.82" waitingTime="15.00" waitingCount="1" stopTime="0.00" timeLoss="35.17" rerouteNo="0" devices="tripinfo_veh150" vType="delivery" speedFactor="0.97" vaporized=""/>
    <tripinfo id="veh17" depart="13.00" departLane="176279225#3_2" departPos="5.38" departSpeed="0.00" departDelay="0.76" arrival="238.00" arrivalLane="-1135856746#1_1" arrivalPos="137.93" arrivalSpeed="13.54" duration="225.00" routeLength="1967.45" waitingTime="65.00" waitingCount="1" stopTime="0.00" timeLoss="83.11" rerouteNo="0" devices="tripinfo_veh17" vType="passenger" speedFactor="1.01" vaporized=""/>
    <tripinfo id="veh125" depart="90.00" departLane="48778501_1" departPos="8.93" departSpeed="0.00" departDelay="0.00" arrival="238.00" arrivalLane="-43544184#4_1" arrivalPos="17.47" arrivalSpeed="11.58" duration="148.00" routeLength="1135.90" waitingTime="31.00" waitingCount="2" stopTime="0.00" timeLoss="55.46" rerouteNo="0" devices="tripinfo_veh125" vType="passenger" speedFactor="0.92" vaporized=""/>
    <tripinfo id="veh27" depart="20.00" departLane="-33913538#9_2" departPos="1.54" departSpeed="0.00" departDelay="0.56" arrival="240.00" arrivalLane="48736624#1_1" arrivalPos="65.19" arrivalSpeed="12.63" duration="220.00" routeLength="1632.46" waitingTime="0.00" waitingCount="0" stopTime="0.00" timeLoss="30.83" rerouteNo="0" devices="tripinfo_veh27" vType="passenger" speedFactor="0.94" vaporized=""/>
    <tripinfo id="veh65" depart="47.00" departLane="671642318#1_1" departPos="37.77" departSpeed="0.00" departDelay="0.20" arrival="240.00" arrivalLane="-67712683_1" arrivalPos="77.22" arrivalSpeed="12.56" duration="193.00" routeLength="2245.14" waitingTime="0.00" waitingCount="0" stopTime="0.00" timeLoss="22.70" rerouteNo="0" devices="tripinfo_veh65" vType="passenger" speedFactor="0.98" vaporized=""/>
    <tripinfo id="veh60" depart="44.00" departLane="-859734514#0_0" departPos="31.86" departSpeed="0.00" departDelay="0.80" arrival="241.00" arrivalLane="43544001#8_1" arrivalPos="45.27" arrivalSpeed="12.16" duration="197.00" routeLength="2083.83" waitingTime="0.00" waitingCount="0" stopTime="0.00" timeLoss="26.79" rerouteNo="0" devices="tripinfo_veh60" vType="passenger" speedFactor="0.92" vaporized=""/>
    <tripinfo id="veh23" depart="17.00" departLane="48736657#1_1" departPos="3.52" departSpeed="0.00" departDelay="0.44" arrival="243.00" arrivalLane="40330575#1_1" arrivalPos="3.63" arrivalSpeed="13.94" duration="226.00" routeLength="1966.66" waitingTime="35.00" waitingCount="4" stopTime="0.00" timeLoss="96.20" rerouteNo="0" devices="tripinfo_veh23" vType="passenger" speedFactor="1.12" vaporized=""/>
    <tripinfo id="veh4" depart="3.00" departLane="43546343#0_1" departPos="33.81" departSpeed="0.00" departDelay="0.12" arrival="249.00" arrivalLane="-143207979#8_1" arrivalPos="38.62" arrivalSpeed="12.86" duration="246.00" routeLength="2768.63" waitingTime="12.00" waitingCount="2" stopTime="0.00" timeLoss="46.62" rerouteNo="0" devices="tripinfo_veh4" vType="passenger" speedFactor="1.02" vaporized=""/>
    <tripinfo id="veh138" depart="100.00" departLane="48736650#2_1" departPos="8.79" departSpeed="0.00" departDelay="0.64" arrival="251.00" arrivalLane="-273835688_1" arrivalPos="177.49" arrivalSpeed="10.82" duration="151.00" routeLength="811.86" waitingTime="57.00" waitingCount="2" stopTime="0.00" timeLoss="80.76" rerouteNo="0" devices="tripinfo_veh138" vType="passenger" speedFactor="0.87" vaporized=""/>
    <tripinfo id="veh160" depart="116.00" departLane="43547579#0_1" departPos="9.47" departSpeed="0.00" departDelay="0.80" arrival="253.00" arrivalLane="984521611#1_0" arrivalPos="22.34" arrivalSpeed="4.84" duration="137.00" routeLength="1014.88" waitingTime="21.00" waitingCount="1" stopTime="0.00" timeLoss="53.64" rerouteNo="0" devices="tripinfo_veh160" vType="passenger" speedFactor="1.00" vaporized=""/>
    <tripinfo id="veh71" depart="52.00" departLane="48788485#9_1" departPos="171.21" departSpeed="0.00" departDelay="0.88" arrival="254.00" arrivalLane="40269009#1_1" arrivalPos="27.44" arrivalSpeed="13.81" duration="202.00" routeLength="1659.67" waitingTime="32.00" waitingCount="2" stopTime="0.00" timeLoss="85.17" rerouteNo="0" devices="tripinfo_veh71" vType="passenger" speedFactor="1.06" vaporized=""/>
    <tripinfo id="veh156" depart="113.00" departLane="48736612#6_1" departPos="0.17" departSpeed="0.00" departDelay="0.68" arrival="254.00" arrivalLane="40299276#0_1" arrivalPos="12.92" arrivalSpeed="9.02" duration="141.00" routeLength="957.63" waitingTime="28.00" waitingCount="3" stopTime="0.00" timeLoss="67.29" rerouteNo="0" devices="tripinfo_veh156" vType="delivery" speedFactor="0.99" vaporized=""/>
    <tripinfo id="veh6" depart="5.00" departLane="1250915723#1_1" departPos="38.48" departSpeed="0.00" departDelay="0.68" arrival="256.00" arrivalLane="-E12_1" arrivalPos="17.16" arrivalSpeed="11.79" duration="251.00" routeLength="2260.37" waitingTime="14.00" waitingCount="2" stopTime="0.00" timeLoss="43.96" rerouteNo="0" devices="tripinfo_veh6" vType="passenger" speedFactor="0.92" vaporized=""/>