<?xml version="1.0" encoding="UTF-8"?>

<!-- generated on 2025-06-15 22:49:36 by Eclipse SUMO sumo Version 1.22.0
<sumoConfiguration xmlns:xsi="http://www.w3.org/2001/XMLSchema-instance" xsi:noNamespaceSchemaLocation="http://sumo.dlr.de/xsd/sumoConfiguration.xsd">

    <input>
        <net-file value="E:/licenta/oras-mediu/2025-06-05-11-45-23\osm.net.xml"/>
        <route-files value="E:/licenta/oras-mediu/2025-06-05-11-45-23\full.rou.xml,E:/licenta/oras-mediu/2025-06-05-11-45-23\ ped.rou.xml,E:/licenta/oras-mediu/2025-06-05-11-45-23\ truck.rou.xml"/>
        <additional-files value="E:/licenta/oras-mediu/2025-06-05-11-45-23\osm.poly.xml,E:/licenta/oras-mediu/2025-06-05-11-45-23\ vtypes.xml"/>
    </input>

    <output>
        <summary-output value="E:/licenta/oras-mediu/2025-06-05-11-45-23\summary.xml"/>
        <tripinfo-output value="E:/licenta/oras-mediu/2025-06-05-11-45-23\tripinfo.xml"/>
    </output>

    <processing>
        <ignore-route-errors value="true"/>
        <tls.actuated.jam-threshold value="30"/>
    </processing>

    <routing>
        <device.rerouting.adaptation-steps value="18"/>
        <device.rerouting.adaptation-interval value="10"/>
    </routing>

    <report>
        <verbose value="true"/>
        <duration-log.statistics value="true"/>
        <no-step-log value="true"/>
    </report>

    <traci_server>
        <remote-port value="51581"/>
    </traci_server>

    <gui_only>
        <gui-settings-file value="E:/licenta/oras-mediu/2025-06-05-11-45-23\osm.view.xml"/>
    </gui_only>

</sumoConfiguration>
-->

<tripinfos xmlns:xsi="http://www.w3.org/2001/XMLSchema-instance" xsi:noNamespaceSchemaLocation="http://sumo.dlr.de/xsd/tripinfo_file.xsd">
    <tripinfo id="veh24" depart="11.00" departLane="40265777#1_1" departPos="63.07" departSpeed="0.00" departDelay="0.44" arrival="48.00" arrivalLane="1136283379#1_1" arrivalPos="30.99" arrivalSpeed="7.40" duration="37.00" routeLength="313.45" waitingTime="0.00" waitingCount="0" stopTime="0.00" timeLoss="7.57" rerouteNo="0" devices="tripinfo_veh24" vType="passenger" speedFactor="0.99" vaporized=""/>
    <tripinfo id="veh21" depart="10.00" departLane="43544588#1_1" departPos="1.14" departSpeed="0.00" departDelay="0.76" arrival="53.00" arrivalLane="-48778526_1" arrivalPos="97.35" arrivalSpeed="12.02" duration="43.00" routeLength="379.78" waitingTime="0.00" waitingCount="0" stopTime="0.00" timeLoss="8.88" rerouteNo="0" devices="tripinfo_veh21" vType="passenger" speedFactor="0.89" vaporized=""/>
    <tripinfo id="veh5" depart="3.00" departLane="-1136279388_0" departPos="18.27" departSpeed="0.00" departDelay="0.80" arrival="70.00" arrivalLane="-48736601_1" arrivalPos="280.11" arrivalSpeed="13.30" duration="67.00" routeLength="711.65" waitingTime="0.00" waitingCount="0" stopTime="0.00" timeLoss="12.88" rerouteNo="0" devices="tripinfo_veh5" vType="delivery" speedFactor="1.05" vaporized=""/>
    <tripinfo id="veh16" depart="8.00" departLane="1135855912_1" departPos="83.41" departSpeed="0.00" departDelay="0.96" arrival="72.00" arrivalLane="492965073#8_2" arrivalPos="91.29" arrivalSpeed="12.33" duration="64.00" routeLength="604.34" waitingTime="0.00" waitingCount="0" stopTime="0.00" timeLoss="10.88" rerouteNo="0" devices="tripinfo_veh16" vType="passenger" speedFactor="0.89" vaporized=""/>
    <personinfo id="ped12" depart="60.00" type="DEFAULT_PEDTYPE" speedFactor="1.03" duration="23.00" waitingTime="0.00" timeLoss="2.82" traveltime="23.00">
        <walk depart="60.00" departPos="0.00" arrival="83.00" arrivalPos="15.57" duration="23.00" routeLength="28.84" timeLoss="2.82" maxSpeed="1.43"/>
    </personinfo>
    <tripinfo id="veh90" depart="40.00" departLane="-1136289992_1" departPos="0.85" departSpeed="0.00" departDelay="0.40" arrival="90.00" arrivalLane="-43544184#4_1" arrivalPos="17.47" arrivalSpeed="9.64" duration="50.00" routeLength="477.55" waitingTime="0.00" waitingCount="0" stopTime="0.00" timeLoss="14.95" rerouteNo="0" devices="tripinfo_veh90" vType="passenger" speedFactor="1.13" vaporized=""/>
    <tripinfo id="veh144" depart="64.00" departLane="40299283_1" departPos="40.72" departSpeed="0.00" departDelay="0.64" arrival="91.00" arrivalLane="48797766#2_1" arrivalPos="182.85" arrivalSpeed="12.62" duration="27.00" routeLength="266.69" waitingTime="0.00" waitingCount="0" stopTime="0.00" timeLoss="5.47" rerouteNo="0" devices="tripinfo_veh144" vType="delivery" speedFactor="0.97" vaporized=""/>
    <tripinfo id="veh50" depart="22.00" departLane="222609002#4_1" departPos="17.94" departSpeed="0.00" departDelay="0.00" arrival="98.00" arrivalLane="-43544184#2_1" arrivalPos="44.27" arrivalSpeed="13.39" duration="76.00" routeLength="838.49" waitingTime="0.00" waitingCount="0" stopTime="0.00" timeLoss="12.25" rerouteNo="0" devices="tripinfo_veh50" vType="delivery" speedFactor="0.99" vaporized=""/>
    <tripinfo id="veh73" depart="33.00" departLane="-222608881#1_1" departPos="22.72" departSpeed="0.00" departDelay="0.88" arrival="104.00" arrivalLane="-43547017#2_1" arrivalPos="56.55" arrivalSpeed="15.33" duration="71.00" routeLength="549.21" waitingTime="0.00" waitingCount="0" stopTime="0.00" timeLoss="33.32" rerouteNo="0" devices="tripinfo_veh73" vType="passenger" speedFactor="1.14" vaporized=""/>
    <tripinfo id="veh98" depart="44.00" departLane="-1136289988_1" departPos="2.54" departSpeed="0.00" departDelay="0.88" arrival="104.00" arrivalLane="48778431#2_2" arrivalPos="131.16" arrivalSpeed="14.17" duration="60.00" routeLength="617.83" waitingTime="0.00" waitingCount="0" stopTime="0.00" timeLoss="12.48" rerouteNo="0" devices="tripinfo_veh98" vType="passenger" speedFactor="1.03" vaporized=""/>
    <tripinfo id="veh26" depart="12.00" departLane="-470210923#3_1" departPos="8.01" departSpeed="0.00" departDelay="0.56" arrival="106.00" arrivalLane="-250295382_1" arrivalPos="106.55" arrivalSpeed="12.77" duration="94.00" routeLength="782.18" waitingTime="22.00" waitingCount="1" stopTime="0.00" timeLoss="36.58" rerouteNo="0" devices="tripinfo_veh26" vType="motorcycle" speedFactor="1.02" vaporized=""/>
    <tripinfo id="veh60" depart="27.00" departLane="-1250915722#3_1" departPos="5.31" departSpeed="0.00" departDelay="0.60" arrival="106.00" arrivalLane="353939570#10_1" arrivalPos="350.36" arrivalSpeed="13.91" duration="79.00" routeLength="678.23" waitingTime="0.00" waitingCount="0" stopTime="0.00" timeLoss="10.15" rerouteNo="0" devices="tripinfo_veh60" vType="passenger" speedFactor="1.09" vaporized=""/>
    <tripinfo id="veh83" depart="37.00" departLane="-250295380#1_1" departPos="19.66" departSpeed="0.00" departDelay="0.48" arrival="122.00" arrivalLane="-40236220#1_1" arrivalPos="30.08" arrivalSpeed="15.81" duration="85.00" routeLength="746.84" waitingTime="11.00" waitingCount="1" stopTime="0.00" timeLoss="38.91" rerouteNo="0" devices="tripinfo_veh83" vType="passenger" speedFactor="1.25" vaporized=""/>
    <tripinfo id="veh248" depart="110.00" departLane="-33910094#1_0" departPos="19.40" departSpeed="0.00" departDelay="0.88" arrival="122.00" arrivalLane="995052775_0" arrivalPos="33.49" arrivalSpeed="5.47" duration="12.00" routeLength="65.07" waitingTime="0.00" waitingCount="0" stopTime="0.00" timeLoss="2.80" rerouteNo="0" devices="tripinfo_veh248" vType="passenger" speedFactor="1.07" vaporized=""/>
    <tripinfo id="veh186" depart="83.00" departLane="43544184#2_1" departPos="12.83" departSpeed="0.00" departDelay="1.16" arrival="123.00" arrivalLane="43573769#1_1" arrivalPos="54.95" arrivalSpeed="14.91" duration="40.00" routeLength="451.04" waitingTime="0.00" waitingCount="0" stopTime="0.00" timeLoss="8.56" rerouteNo="0" devices="tripinfo_veh186" vType="delivery" speedFactor="1.08" vaporized=""/>
    <tripinfo id="veh123" depart="55.00" departLane="48778485#0_1" departPos="21.18" departSpeed="0.00" departDelay="0.88" arrival="131.00" arrivalLane="-353939570#8_1" arrivalPos="84.62" arrivalSpeed="13.37" duration="76.00" routeLength="837.27" waitingTime="0.00" waitingCount="0" stopTime="0.00" timeLoss="13.76" rerouteNo="0" devices="tripinfo_veh123" vType="motorcycle" speedFactor="1.01" vaporized=""/>
    <personinfo id="ped0" depart="0.00" type="DEFAULT_PEDTYPE" speedFactor="1.03" duration="136.00" waitingTime="0.00" timeLoss="14.99" traveltime="136.00">
        <walk depart="0.00" departPos="0.00" arrival="136.00" arrivalPos="13.21" duration="136.00" routeLength="173.16" timeLoss="14.99" maxSpeed="1.43"/>
    </personinfo>
    <tripinfo id="veh124" depart="55.00" departLane="-992542694_0" departPos="15.04" departSpeed="0.00" departDelay="0.44" arrival="137.00" arrivalLane="-40236144#3_1" arrivalPos="83.77" arrivalSpeed="11.77" duration="82.00" routeLength="648.92" waitingTime="5.00" waitingCount="1" stopTime="0.00" timeLoss="23.19" rerouteNo="0" devices="tripinfo_veh124" vType="passenger" speedFactor="0.91" vaporized=""/>
    <tripinfo id="veh12" depart="6.00" departLane="48736667_1" departPos="42.99" departSpeed="0.00" departDelay="0.72" arrival="142.00" arrivalLane="-996984133_1" arrivalPos="75.36" arrivalSpeed="7.12" duration="136.00" routeLength="1413.88" waitingTime="0.00" waitingCount="0" stopTime="0.00" timeLoss="21.71" rerouteNo="0" devices="tripinfo_veh12" vType="delivery" speedFactor="0.97" vaporized=""/>
    <tripinfo id="veh54" depart="24.00" departLane="48736650#1_1" departPos="0.66" departSpeed="0.00" departDelay="0.24" arrival="145.00" arrivalLane="43547579#4_1" arrivalPos="247.27" arrivalSpeed="13.89" duration="121.00" routeLength="1413.67" waitingTime="2.00" waitingCount="1" stopTime="0.00" timeLoss="19.86" rerouteNo="0" devices="tripinfo_veh54" vType="passenger" speedFactor="1.02" vaporized=""/>
    <tripinfo id="veh164" depart="73.00" departLane="48778474#1_1" departPos="73.74" departSpeed="0.00" departDelay="0.84" arrival="146.00" arrivalLane="-256555440#1_1" arrivalPos="58.59" arrivalSpeed="11.04" duration="73.00" routeLength="555.63" waitingTime="0.00" waitingCount="0" stopTime="0.00" timeLoss="20.20" rerouteNo="0" devices="tripinfo_veh164" vType="passenger" speedFactor="0.80" vaporized=""/>
    <tripinfo id="veh111" depart="49.00" departLane="-671642290_1" departPos="4.60" departSpeed="0.00" departDelay="0.16" arrival="149.00" arrivalLane="-43544179#1_1" arrivalPos="36.35" arrivalSpeed="13.75" duration="100.00" routeLength="1280.19" waitingTime="0.00" waitingCount="0" stopTime="0.00" timeLoss="15.90" rerouteNo="0" devices="tripinfo_veh111" vType="passenger" speedFactor="1.11" vaporized=""/>
    <tripinfo id="veh28" depart="13.00" departLane="40299271_1" departPos="24.19" departSpeed="0.00" departDelay="0.68" arrival="153.00" arrivalLane="43546379_1" arrivalPos="170.39" arrivalSpeed="14.68" duration="140.00" routeLength="1275.97" waitingTime="15.00" waitingCount="2" stopTime="0.00" timeLoss="51.21" rerouteNo="0" devices="tripinfo_veh28" vType="passenger" speedFactor="1.10" vaporized=""/>
    <tripinfo id="veh32" depart="15.00" departLane="-43546935#2_1" departPos="28.41" departSpeed="0.00" departDelay="0.92" arrival="154.00" arrivalLane="-223883703_0" arrivalPos="83.93" arrivalSpeed="4.75" duration="139.00" routeLength="1497.33" waitingTime="0.00" waitingCount="0" stopTime="0.00" timeLoss="21.90" rerouteNo="0" devices="tripinfo_veh32" vType="passenger" speedFactor="1.04" vaporized=""/>
    <tripinfo id="veh37" depart="17.00" departLane="353939570#5_2" departPos="15.01" departSpeed="0.00" departDelay="0.72" arrival="156.00" arrivalLane="273834906_1" arrivalPos="76.57" arrivalSpeed="13.52" duration="139.00" routeLength="1486.53" waitingTime="2.00" waitingCount="1" stopTime="0.00" timeLoss="34.41" rerouteNo="0" devices="tripinfo_veh37" vType="passenger" speedFactor="1.06" vaporized=""/>
    <tripinfo id="veh88" depart="39.00" departLane="-859729932_0" departPos="74.25" departSpeed="0.00" departDelay="0.28" arrival="159.00" arrivalLane="-48797772_1" arrivalPos="103.62" arrivalSpeed="12.89" duration="120.00" routeLength="1276.74" waitingTime="0.00" waitingCount="0" stopTime="0.00" timeLoss="20.30" rerouteNo="0" devices="tripinfo_veh88" vType="passenger" speedFactor="0.97" vaporized=""/>
    <tripinfo id="veh261" depart="115.00" departLane="48778461#0_1" departPos="29.97" departSpeed="0.00" departDelay="0.16" arrival="161.00" arrivalLane="647755347#1_1" arrivalPos="34.98" arrivalSpeed="11.53" duration="46.00" routeLength="367.92" waitingTime="0.00" waitingCount="0" stopTime="0.00" timeLoss="11.05" rerouteNo="0" devices="tripinfo_veh261" vType="passenger" speedFactor="0.90" vaporized=""/>
    <tripinfo id="veh34" depart="15.00" departLane="43573547#8_1" departPos="2.33" departSpeed="0.00" departDelay="0.04" arrival="167.00" arrivalLane="43546935#1_1" arrivalPos="51.34" arrivalSpeed="14.32" duration="152.00" routeLength="1884.17" waitingTime="0.00" waitingCount="0" stopTime="0.00" timeLoss="24.56" rerouteNo="0" devices="tripinfo_veh34" vType="passenger" speedFactor="1.09" vaporized=""/>
    <tripinfo id="veh110" depart="49.00" departLane="383582511#1_0" departPos="0.87" departSpeed="0.00" departDelay="0.60" arrival="168.00" arrivalLane="40304754#4_1" arrivalPos="101.37" arrivalSpeed="14.33" duration="119.00" routeLength="1502.21" waitingTime="0.00" waitingCount="0" stopTime="0.00" timeLoss="12.27" rerouteNo="0" devices="tripinfo_veh110" vType="passenger" speedFactor="1.06" vaporized=""/>
    <personinfo id="ped4" depart="20.00" type="DEFAULT_PEDTYPE" speedFactor="0.99" duration="151.00" waitingTime="0.00" timeLoss="16.87" traveltime="151.00">
        <walk depart="20.00" departPos="0.00" arrival="171.00" arrivalPos="84.26" duration="151.00" routeLength="184.09" timeLoss="16.87" maxSpeed="1.37"/>
    </personinfo>
    <tripinfo id="veh203" depart="90.00" departLane="-43573573#2_1" departPos="174.29" departSpeed="0.00" departDelay="0.68" arrival="172.00" arrivalLane="258551283#1_1" arrivalPos="55.98" arrivalSpeed="12.51" duration="82.00" routeLength="833.10" waitingTime="0.00" waitingCount="0" stopTime="0.00" timeLoss="16.27" rerouteNo="0" devices="tripinfo_veh203" vType="passenger" speedFactor="0.96" vaporized=""/>
    <tripinfo id="veh173" depart="77.00" departLane="-48736624#3_1" departPos="0.12" departSpeed="0.00" departDelay="0.88" arrival="175.00" arrivalLane="176279225#3_2" arrivalPos="13.07" arrivalSpeed="13.08" duration="98.00" routeLength="1084.99" waitingTime="0.00" waitingCount="0" stopTime="0.00" timeLoss="12.68" rerouteNo="0" devices="tripinfo_veh173" vType="passenger" speedFactor="0.96" vaporized=""/>
    <tripinfo id="veh140" depart="62.00" departLane="40236144#3_1" departPos="26.90" departSpeed="0.00" departDelay="0.40" arrival="176.00" arrivalLane="-945793490#5_1" arrivalPos="110.67" arrivalSpeed="4.94" duration="114.00" routeLength="957.68" waitingTime="0.00" waitingCount="0" stopTime="0.00" timeLoss="24.57" rerouteNo="0" devices="tripinfo_veh140" vType="motorcycle" speedFactor="1.08" vaporized=""/>
    <tripinfo id="veh38" depart="17.00" departLane="48778493#1_1" departPos="4.77" departSpeed="0.00" departDelay="0.28" arrival="177.00" arrivalLane="48736621#1_1" arrivalPos="24.45" arrivalSpeed="15.74" duration="160.00" routeLength="1993.25" waitingTime="0.00" waitingCount="0" stopTime="0.00" timeLoss="28.47" rerouteNo="0" devices="tripinfo_veh38" vType="passenger" speedFactor="1.17" vaporized=""/>
    <tripinfo id="veh165" depart="73.00" departLane="48778473#1_1" departPos="5.33" departSpeed="0.00" departDelay="0.40" arrival="177.00" arrivalLane="-1136301812#0_1" arrivalPos="36.85" arrivalSpeed="13.13" duration="104.00" routeLength="949.31" waitingTime="6.00" waitingCount="1" stopTime="0.00" timeLoss="28.52" rerouteNo="0" devices="tripinfo_veh165" vType="passenger" speedFactor="0.98" vaporized=""/>
    <tripinfo id="veh35" depart="16.00" departLane="1017995181_1" departPos="2.72" departSpeed="0.00" departDelay="0.60" arrival="179.00" arrivalLane="48736667_1" arrivalPos="133.52" arrivalSpeed="12.43" duration="163.00" routeLength="1643.44" waitingTime="9.00" waitingCount="2" stopTime="0.00" timeLoss="34.95" rerouteNo="0" devices="tripinfo_veh35" vType="passenger" speedFactor="0.95" vaporized=""/>
    <tripinfo id="veh170" depart="75.00" departLane="-33909936#2_1" departPos="42.80" departSpeed="0.00" departDelay="0.20" arrival="180.00" arrivalLane="43573573#3_1" arrivalPos="71.51" arrivalSpeed="14.40" duration="105.00" routeLength="885.89" waitingTime="15.00" waitingCount="1" stopTime="0.00" timeLoss="38.64" rerouteNo="0" devices="tripinfo_veh170" vType="passenger" speedFactor="1.04" vaporized=""/>
    <tripinfo id="veh155" depart="69.00" departLane="-48736645_1" departPos="91.82" departSpeed="0.00" departDelay="0.80" arrival="181.00" arrivalLane="-43546115_1" arrivalPos="162.45" arrivalSpeed="11.74" duration="112.00" routeLength="1150.48" waitingTime="0.00" waitingCount="0" stopTime="0.00" timeLoss="19.85" rerouteNo="0" devices="tripinfo_veh155" vType="delivery" speedFactor="0.94" vaporized=""/>
    <tripinfo id="veh154" depart="68.00" departLane="E41_1" departPos="33.94" departSpeed="0.00" departDelay="0.24" arrival="184.00" arrivalLane="75628811#1_1" arrivalPos="166.06" arrivalSpeed="8.73" duration="116.00" routeLength="577.49" waitingTime="62.00" waitingCount="1" stopTime="0.00" timeLoss="77.86" rerouteNo="0" devices="tripinfo_veh154" vType="passenger" speedFactor="1.15" vaporized=""/>
    <tripinfo id="veh175" depart="77.00" departLane="-671642291_1" departPos="41.96" departSpeed="0.00" departDelay="0.00" arrival="184.00" arrivalLane="43547256#0_1" arrivalPos="391.85" arrivalSpeed="12.47" duration="107.00" routeLength="1225.96" waitingTime="0.00" waitingCount="0" stopTime="0.00" timeLoss="16.49" rerouteNo="0" devices="tripinfo_veh175" vType="motorcycle" speedFactor="1.01" vaporized=""/>
    <tripinfo id="veh2" depart="1.00" departLane="1135772296#0_0" departPos="10.86" departSpeed="0.00" departDelay="0.12" arrival="185.00" arrivalLane="48736624#1_1" arrivalPos="65.19" arrivalSpeed="14.16" duration="184.00" routeLength="1506.62" waitingTime="43.00" waitingCount="1" stopTime="0.00" timeLoss="75.13" rerouteNo="0" devices="tripinfo_veh2" vType="passenger" speedFactor="1.08" vaporized=""/>
    <tripinfo id="veh153" depart="68.00" departLane="-48778510#0_1" departPos="3.85" departSpeed="0.00" departDelay="0.68" arrival="189.00" arrivalLane="-43573478_1" arrivalPos="180.41" arrivalSpeed="13.79" duration="121.00" routeLength="1329.17" waitingTime="0.00" waitingCount="0" stopTime="0.00" timeLoss="21.52" rerouteNo="0" devices="tripinfo_veh153" vType="passenger" speedFactor="1.00" vaporized=""/>
    <tripinfo id="veh232" depart="103.00" departLane="-48778510#0_1" departPos="4.03" departSpeed="0.00" departDelay="0.92" arrival="189.00" arrivalLane="-67712683_1" arrivalPos="77.22" arrivalSpeed="13.20" duration="86.00" routeLength="894.45" waitingTime="1.00" waitingCount="1" stopTime="0.00" timeLoss="17.73" rerouteNo="0" devices="tripinfo_veh232" vType="delivery" speedFactor="0.98" vaporized=""/>
    <tripinfo id="veh42" depart="19.00" departLane="48736619_1" departPos="25.34" departSpeed="0.00" departDelay="0.52" arrival="190.00" arrivalLane="40330557#0_1" arrivalPos="52.98" arrivalSpeed="12.28" duration="171.00" routeLength="1987.27" waitingTime="0.00" waitingCount="0" stopTime="0.00" timeLoss="25.34" rerouteNo="0" devices="tripinfo_veh42" vType="motorcycle" speedFactor="1.00" vaporized=""/>
    <tripinfo id="veh79" depart="35.00" departLane="40236164_1" departPos="85.57" departSpeed="0.00" departDelay="0.24" arrival="191.00" arrivalLane="-354259933#0_1" arrivalPos="10.70" arrivalSpeed="13.77" duration="156.00" routeLength="1551.55" waitingTime="4.00" waitingCount="2" stopTime="0.00" timeLoss="48.26" rerouteNo="0" devices="tripinfo_veh79" vType="passenger" speedFactor="1.08" vaporized=""/>
    <tripinfo id="veh159" depart="70.00" departLane="-48736656#2_1" departPos="7.45" departSpeed="0.00" departDelay="0.04" arrival="192.00" arrivalLane="43546449#0_1" arrivalPos="86.89" arrivalSpeed="13.34" duration="122.00" routeLength="1338.62" waitingTime="2.00" waitingCount="1" stopTime="0.00" timeLoss="25.17" rerouteNo="0" devices="tripinfo_veh159" vType="passenger" speedFactor="1.03" vaporized=""/>
    <tripinfo id="veh190" depart="84.00" departLane="40236203#2_1" departPos="9.49" departSpeed="0.00" departDelay="0.40" arrival="192.00" arrivalLane="-43547579#4_1" arrivalPos="251.60" arrivalSpeed="12.35" duration="108.00" routeLength="1134.70" waitingTime="0.00" waitingCount="0" stopTime="0.00" timeLoss="15.06" rerouteNo="0" devices="tripinfo_veh190" vType="passenger" speedFactor="0.89" vaporized=""/>
    <tripinfo id="veh264" depart="117.00" departLane="-43546449#0_1" departPos="34.37" departSpeed="0.00" departDelay="0.84" arrival="192.00" arrivalLane="-383582497_0" arrivalPos="31.03" arrivalSpeed="3.12" duration="75.00" routeLength="525.97" waitingTime="3.00" waitingCount="1" stopTime="0.00" timeLoss="30.90" rerouteNo="0" devices="tripinfo_veh264" vType="passenger" speedFactor="1.16" vaporized=""/>
    <tripinfo id="veh8" depart="4.00" departLane="222605084#8_1" departPos="1.55" departSpeed="0.00" departDelay="0.48" arrival="194.00" arrivalLane="48778519_1" arrivalPos="91.88" arrivalSpeed="14.94" duration="190.00" routeLength="1820.77" waitingTime="20.00" waitingCount="1" stopTime="0.00" timeLoss="52.34" rerouteNo="0" devices="tripinfo_veh8" vType="passenger" speedFactor="1.12" vaporized=""/>
    <tripinfo id="veh252" depart="111.00" departLane="945794107_1" departPos="102.75" departSpeed="0.00" departDelay="0.12" arrival="195.00" arrivalLane="-354259927_1" arrivalPos="310.58" arrivalSpeed="15.43" duration="84.00" routeLength="1198.30" waitingTime="0.00" waitingCount="0" stopTime="0.00" timeLoss="12.76" rerouteNo="0" devices="tripinfo_veh252" vType="passenger" speedFactor="1.13" vaporized=""/>
    <tripinfo id="veh198" depart="88.00" departLane="40236144#3_1" departPos="13.47" departSpeed="0.00" departDelay="0.88" arrival="196.00" arrivalLane="-48778502#0_1" arrivalPos="26.17" arrivalSpeed="13.35" duration="108.00" routeLength="1076.42" waitingTime="9.00" waitingCount="1" stopTime="0.00" timeLoss="27.18" rerouteNo="0" devices="tripinfo_veh198" vType="delivery" speedFactor="0.98" vaporized=""/>
    <tripinfo id="veh163" depart="72.00" departLane="-48797768_1" departPos="88.53" departSpeed="0.00" departDelay="0.28" arrival="197.00" arrivalLane="-48736650#2_1" arrivalPos="16.21" arrivalSpeed="10.85" duration="125.00" routeLength="987.64" waitingTime="32.00" waitingCount="1" stopTime="0.00" timeLoss="51.58" rerouteNo="0" devices="tripinfo_veh163" vType="motorcycle" speedFactor="1.00" vaporized=""/>
    <tripinfo id="veh206" depart="91.00" departLane="-40265774#0_1" departPos="54.57" departSpeed="0.00" departDelay="0.36" arrival="197.00" arrivalLane="43544179#6_1" arrivalPos="35.50" arrivalSpeed="14.76" duration="106.00" routeLength="1218.85" waitingTime="0.00" waitingCount="0" stopTime="0.00" timeLoss="25.19" rerouteNo="0" devices="tripinfo_veh206" vType="passenger" speedFactor="1.12" vaporized=""/>
    <tripinfo id="veh105" depart="47.00" departLane="223883703_0" departPos="22.52" departSpeed="0.00" departDelay="0.80" arrival="198.00" arrivalLane="-996984134_0" arrivalPos="80.94" arrivalSpeed="5.69" duration="151.00" routeLength="1129.02" waitingTime="28.00" waitingCount="2" stopTime="0.00" timeLoss="54.67" rerouteNo="0" devices="tripinfo_veh105" vType="passenger" speedFactor="1.04" vaporized=""/>
    <tripinfo id="veh194" depart="86.00" departLane="43573547#6_1" departPos="2.49" departSpeed="0.00" departDelay="0.64" arrival="199.00" arrivalLane="258551279_0" arrivalPos="179.06" arrivalSpeed="3.68" duration="113.00" routeLength="747.97" waitingTime="4.00" waitingCount="1" stopTime="0.00" timeLoss="24.91" rerouteNo="0" devices="tripinfo_veh194" vType="passenger" speedFactor="0.85" vaporized=""/>
    <tripinfo id="veh244" depart="108.00" departLane="222609002#2_1" departPos="7.12" departSpeed="0.00" departDelay="0.64" arrival="199.00" arrivalLane="-48778516_1" arrivalPos="192.95" arrivalSpeed="13.27" duration="91.00" routeLength="1074.05" waitingTime="0.00" waitingCount="0" stopTime="0.00" timeLoss="14.31" rerouteNo="0" devices="tripinfo_veh244" vType="passenger" speedFactor="1.05" vaporized=""/>
    <tripinfo id="veh86" depart="38.00" departLane="40299241#2_1" departPos="114.88" departSpeed="0.00" departDelay="0.16" arrival="200.00" arrivalLane="-40266620_1" arrivalPos="32.50" arrivalSpeed="12.94" duration="162.00" routeLength="1985.98" waitingTime="0.00" waitingCount="0" stopTime="0.00" timeLoss="18.56" rerouteNo="0" devices="tripinfo_veh86" vType="delivery" speedFactor="1.01" vaporized=""/>
    <tripinfo id="veh185" depart="82.00" departLane="-43546109_1" departPos="89.93" departSpeed="0.00" departDelay="0.60" arrival="203.00" arrivalLane="-43573478_1" arrivalPos="180.41" arrivalSpeed="12.83" duration="121.00" routeLength="1183.73" waitingTime="4.00" waitingCount="1" stopTime="0.00" timeLoss="29.36" rerouteNo="0" devices="tripinfo_veh185" vType="delivery" speedFactor="0.99" vaporized=""/>
    <tripinfo id="veh99" depart="44.00" departLane="-945793485#0_1" departPos="1.42" departSpeed="0.00" departDelay="0.44" arrival="209.00" arrivalLane="33909936#3_1" arrivalPos="24.72" arrivalSpeed="12.03" duration="165.00" routeLength="1590.93" waitingTime="6.00" waitingCount="2" stopTime="0.00" timeLoss="46.95" rerouteNo="0" devices="tripinfo_veh99" vType="passenger" speedFactor="1.00" vaporized=""/>
    <tripinfo id="veh290" depart="128.00" departLane="304695350#2_1" departPos="2.44" departSpeed="0.00" departDelay="0.40" arrival="210.00" arrivalLane="-258551281_1" arrivalPos="67.94" arrivalSpeed="11.48" duration="82.00" routeLength="681.68" waitingTime="4.00" waitingCount="1" stopTime="0.00" timeLoss="20.76" rerouteNo="0" devices="tripinfo_veh290" vType="passenger" speedFactor="0.86" vaporized=""/>
    <tripinfo id="veh95" depart="42.00" departLane="-48736602_1" departPos="69.48" departSpeed="0.00" departDelay="0.20" arrival="212.00" arrivalLane="-40330575#4_1" arrivalPos="66.51" arrivalSpeed="13.29" duration="170.00" routeLength="1931.37" waitingTime="1.00" waitingCount="1" stopTime="0.00" timeLoss="33.34" rerouteNo="0" devices="tripinfo_veh95" vType="passenger" speedFactor="1.03" vaporized=""/>
    <tripinfo id="veh143" depart="63.00" departLane="492965073#9_1" departPos="22.92" departSpeed="0.00" departDelay="0.08" arrival="212.00" arrivalLane="48778493#2_1" arrivalPos="44.65" arrivalSpeed="12.14" duration="149.00" routeLength="1115.77" waitingTime="10.00" waitingCount="1" stopTime="0.00" timeLoss="61.63" rerouteNo="0" devices="tripinfo_veh143" vType="passenger" speedFactor="0.93" vaporized=""/>
    <tripinfo id="veh288" depart="130.00" departLane="40236203#2_1" departPos="8.09" departSpeed="0.00" departDelay="3.28" arrival="212.00" arrivalLane="222609002#2_1" arrivalPos="15.40" arrivalSpeed="13.23" duration="82.00" routeLength="804.53" waitingTime="0.00" waitingCount="0" stopTime="0.00" timeLoss="19.91" rerouteNo="0" devices="tripinfo_veh288" vType="passenger" speedFactor="0.97" vaporized=""/>
    <tripinfo id="veh20" depart="9.00" departLane="354259933#3_1" departPos="43.85" departSpeed="0.00" departDelay="0.20" arrival="214.00" arrivalLane="578560104#6_1" arrivalPos="101.26" arrivalSpeed="5.82" duration="205.00" routeLength="1547.65" waitingTime="67.00" waitingCount="3" stopTime="0.00" timeLoss="102.62" rerouteNo="0" devices="tripinfo_veh20" vType="passenger" speedFactor="1.13" vaporized=""/>
    <tripinfo id="veh78" depart="35.00" departLane="222609002#3_1" departPos="9.79" departSpeed="0.00" departDelay="0.68" arrival="214.00" arrivalLane="-40330557#2_1" arrivalPos="99.94" arrivalSpeed="12.28" duration="179.00" routeLength="1464.87" waitingTime="27.00" waitingCount="2" stopTime="0.00" timeLoss="56.40" rerouteNo="0" devices="tripinfo_veh78" vType="passenger" speedFactor="0.89" vaporized=""/>
    <tripinfo id="veh103" depart="46.00" departLane="48736620#2_1" departPos="19.31" departSpeed="0.00" departDelay="0.68" arrival="214.00" arrivalLane="-354259933#0_1" arrivalPos="10.70" arrivalSpeed="13.39" duration="168.00" routeLength="1970.64" waitingTime="12.00" waitingCount="1" stopTime="0.00" timeLoss="29.90" rerouteNo="0" devices="tripinfo_veh103" vType="passenger" speedFactor="1.03" vaporized=""/>
    <tripinfo id="veh215" depart="95.00" departLane="43546793_1" departPos="182.83" departSpeed="0.00" departDelay="0.40" arrival="215.00" arrivalLane="43545645#0_1" arrivalPos="209.85" arrivalSpeed="12.57" duration="120.00" routeLength="1238.39" waitingTime="1.00" waitingCount="1" stopTime="0.00" timeLoss="20.92" rerouteNo="0" devices="tripinfo_veh215" vType="delivery" speedFactor="0.93" vaporized=""/>
    <tripinfo id="veh137" depart="61.00" departLane="-48736647#1_1" departPos="52.36" departSpeed="0.00" departDelay="0.72" arrival="216.00" arrivalLane="859728622_0" arrivalPos="319.42" arrivalSpeed="3.07" duration="155.00" routeLength="1131.13" waitingTime="1.00" waitingCount="1" stopTime="0.00" timeLoss="38.03" rerouteNo="0" devices="tripinfo_veh137" vType="motorcycle" speedFactor="1.02" vaporized=""/>
    <tripinfo id="veh349" depart="154.00" departLane="-222605087#0_1" departPos="8.73" departSpeed="0.00" departDelay="0.44" arrival="217.00" arrivalLane="-40330571#0_1" arrivalPos="10.50" arrivalSpeed="13.43" duration="63.00" routeLength="676.48" waitingTime="0.00" waitingCount="0" stopTime="0.00" timeLoss="10.75" rerouteNo="0" devices="tripinfo_veh349" vType="emergency" speedFactor="1.00" vaporized=""/>
    <tripinfo id="veh330" depart="146.00" departLane="-48778524#1_1" departPos="19.17" departSpeed="0.00" departDelay="0.80" arrival="219.00" arrivalLane="-43544179#11_1" arrivalPos="85.20" arrivalSpeed="11.70" duration="73.00" routeLength="757.95" waitingTime="0.00" waitingCount="0" stopTime="0.00" timeLoss="11.41" rerouteNo="0" devices="tripinfo_veh330" vType="passenger" speedFactor="0.93" vaporized=""/>