<?xml version="1.0" encoding="UTF-8"?>

<!-- generated on 2025-06-15 21:30:02 by Eclipse SUMO sumo Version 1.22.0
<sumoConfiguration xmlns:xsi="http://www.w3.org/2001/XMLSchema-instance" xsi:noNamespaceSchemaLocation="http://sumo.dlr.de/xsd/sumoConfiguration.xsd">

    <input>
        <net-file value="E:/licenta/oras-mediu/2025-06-05-11-45-23\osm.net.xml"/>
        <route-files value="E:/licenta/oras-mediu/2025-06-05-11-45-23\full.rou.xml,E:/licenta/oras-mediu/2025-06-05-11-45-23\ ped.rou.xml,E:/licenta/oras-mediu/2025-06-05-11-45-23\ truck.rou.xml"/>
        <additional-files value="E:/licenta/oras-mediu/2025-06-05-11-45-23\osm.poly.xml,E:/licenta/oras-mediu/2025-06-05-11-45-23\ vtypes.xml"/>
    </input>

    <output>
        <summary-output value="E:/licenta/oras-mediu/2025-06-05-11-45-23\summary.xml"/>
        <tripinfo-output value="E:/licenta/oras-mediu/2025-06-05-11-45-23\tripinfo.xml"/>
    </output>

    <processing>
        <ignore-route-errors value="true"/>
        <tls.actuated.jam-threshold value="30"/>
    </processing>

    <routing>
        <device.rerouting.adaptation-steps value="18"/>
        <device.rerouting.adaptation-interval value="10"/>
    </routing>

    <report>
        <verbose value="true"/>
        <duration-log.statistics value="true"/>
        <no-step-log value="true"/>
    </report>

    <traci_server>
        <remote-port value="63929"/>
    </traci_server>

    <gui_only>
        <gui-settings-file value="E:/licenta/oras-mediu/2025-06-05-11-45-23\osm.view.xml"/>
    </gui_only>

</sumoConfiguration>
-->

<tripinfos xmlns:xsi="http://www.w3.org/2001/XMLSchema-instance" xsi:noNamespaceSchemaLocation="http://sumo.dlr.de/xsd/tripinfo_file.xsd">
    <personinfo id="ped0" depart="0.00" type="DEFAULT_PEDTYPE" speedFactor="1.03" duration="37.00" waitingTime="0.00" timeLoss="3.92" traveltime="37.00">
        <walk depart="0.00" departPos="0.00" arrival="37.00" arrivalPos="21.25" duration="37.00" routeLength="47.34" timeLoss="3.92" maxSpeed="1.43"/>
    </personinfo>
    <tripinfo id="veh20" depart="13.00" departLane="304695350#2_1" departPos="2.63" departSpeed="0.00" departDelay="0.00" arrival="72.00" arrivalLane="48736637_1" arrivalPos="17.08" arrivalSpeed="8.86" duration="59.00" routeLength="595.54" waitingTime="0.00" waitingCount="0" stopTime="0.00" timeLoss="13.91" rerouteNo="0" devices="tripinfo_veh20" vType="passenger" speedFactor="1.03" vaporized=""/>
    <tripinfo id="veh39" depart="26.00" departLane="383582512#0_0" departPos="25.31" departSpeed="0.00" departDelay="0.65" arrival="74.00" arrivalLane="-43546935#1_1" arrivalPos="51.35" arrivalSpeed="11.21" duration="48.00" routeLength="371.15" waitingTime="0.00" waitingCount="0" stopTime="0.00" timeLoss="8.93" rerouteNo="0" devices="tripinfo_veh39" vType="passenger" speedFactor="0.88" vaporized=""/>
    <tripinfo id="veh16" depart="11.00" departLane="-1136283379#1_1" departPos="4.93" departSpeed="0.00" departDelay="0.60" arrival="95.00" arrivalLane="40265775#0_1" arrivalPos="76.56" arrivalSpeed="11.93" duration="84.00" routeLength="722.95" waitingTime="0.00" waitingCount="0" stopTime="0.00" timeLoss="19.02" rerouteNo="0" devices="tripinfo_veh16" vType="passenger" speedFactor="0.89" vaporized=""/>
    <tripinfo id="veh21" depart="14.00" departLane="43547579#0_1" departPos="58.71" departSpeed="0.00" departDelay="0.35" arrival="99.00" arrivalLane="1136301815#1_1" arrivalPos="29.62" arrivalSpeed="13.84" duration="85.00" routeLength="865.04" waitingTime="0.00" waitingCount="0" stopTime="0.00" timeLoss="24.39" rerouteNo="0" devices="tripinfo_veh21" vType="passenger" speedFactor="1.13" vaporized=""/>
    <tripinfo id="veh51" depart="34.00" departLane="-43573769#1_1" departPos="31.85" departSpeed="0.00" departDelay="0.85" arrival="103.00" arrivalLane="-33909936#2_1" arrivalPos="60.97" arrivalSpeed="13.50" duration="69.00" routeLength="724.59" waitingTime="0.00" waitingCount="0" stopTime="0.00" timeLoss="13.35" rerouteNo="0" devices="tripinfo_veh51" vType="delivery" speedFactor="0.99" vaporized=""/>
    <tripinfo id="veh17" depart="12.00" departLane="-40236144#2_1" departPos="17.11" departSpeed="0.00" departDelay="0.95" arrival="107.00" arrivalLane="-40269009#0_1" arrivalPos="20.68" arrivalSpeed="12.14" duration="95.00" routeLength="823.00" waitingTime="5.00" waitingCount="1" stopTime="0.00" timeLoss="25.34" rerouteNo="0" devices="tripinfo_veh17" vType="passenger" speedFactor="1.01" vaporized=""/>
    <tripinfo id="veh58" depart="38.00" departLane="-258551321_1" departPos="25.50" departSpeed="0.00" departDelay="0.30" arrival="109.00" arrivalLane="-250295380#1_1" arrivalPos="92.88" arrivalSpeed="14.42" duration="71.00" routeLength="817.43" waitingTime="0.00" waitingCount="0" stopTime="0.00" timeLoss="12.63" rerouteNo="0" devices="tripinfo_veh58" vType="passenger" speedFactor="1.06" vaporized=""/>
    <tripinfo id="veh18" depart="12.00" departLane="43573478_1" departPos="23.34" departSpeed="0.00" departDelay="0.30" arrival="110.00" arrivalLane="40236232#1_1" arrivalPos="114.84" arrivalSpeed="11.25" duration="98.00" routeLength="943.64" waitingTime="0.00" waitingCount="0" stopTime="0.00" timeLoss="15.72" rerouteNo="0" devices="tripinfo_veh18" vType="passenger" speedFactor="0.87" vaporized=""/>
    <tripinfo id="veh57" depart="38.00" departLane="-48797769_1" departPos="9.27" departSpeed="0.00" departDelay="0.95" arrival="111.00" arrivalLane="-48778457#1_1" arrivalPos="25.26" arrivalSpeed="12.12" duration="73.00" routeLength="590.57" waitingTime="2.00" waitingCount="1" stopTime="0.00" timeLoss="23.71" rerouteNo="0" devices="tripinfo_veh57" vType="delivery" speedFactor="0.96" vaporized=""/>
    <tripinfo id="veh24" depart="16.00" departLane="-984508805_0" departPos="17.15" departSpeed="0.00" departDelay="0.40" arrival="113.00" arrivalLane="48736648#1_1" arrivalPos="233.53" arrivalSpeed="5.03" duration="97.00" routeLength="819.02" waitingTime="0.00" waitingCount="0" stopTime="0.00" timeLoss="16.88" rerouteNo="0" devices="tripinfo_veh24" vType="passenger" speedFactor="1.12" vaporized=""/>
    <tripinfo id="veh23" depart="15.00" departLane="578560104#4_1" departPos="7.80" departSpeed="0.00" departDelay="0.05" arrival="119.00" arrivalLane="-984521613_0" arrivalPos="61.82" arrivalSpeed="6.09" duration="104.00" routeLength="1129.77" waitingTime="0.00" waitingCount="0" stopTime="0.00" timeLoss="23.72" rerouteNo="0" devices="tripinfo_veh23" vType="passenger" speedFactor="1.15" vaporized=""/>
    <tripinfo id="veh0" depart="0.00" departLane="1135855912_1" departPos="83.73" departSpeed="0.00" departDelay="0.00" arrival="123.00" arrivalLane="1136283379#1_1" arrivalPos="30.99" arrivalSpeed="6.32" duration="123.00" routeLength="1284.78" waitingTime="0.00" waitingCount="0" stopTime="0.00" timeLoss="22.09" rerouteNo="0" devices="tripinfo_veh0" vType="motorcycle" speedFactor="0.98" vaporized=""/>
    <tripinfo id="veh120" depart="81.00" departLane="-48778524#1_1" departPos="8.69" departSpeed="0.00" departDelay="3.00" arrival="123.00" arrivalLane="43546935#3_1" arrivalPos="13.61" arrivalSpeed="13.14" duration="42.00" routeLength="441.43" waitingTime="0.00" waitingCount="0" stopTime="0.00" timeLoss="8.72" rerouteNo="0" devices="tripinfo_veh120" vType="motorcycle" speedFactor="1.04" vaporized=""/>
    <tripinfo id="veh65" depart="43.00" departLane="43544202#1_1" departPos="85.24" departSpeed="0.00" departDelay="0.75" arrival="126.00" arrivalLane="1136289991_1" arrivalPos="31.14" arrivalSpeed="8.04" duration="83.00" routeLength="807.14" waitingTime="0.00" waitingCount="0" stopTime="0.00" timeLoss="22.39" rerouteNo="0" devices="tripinfo_veh65" vType="passenger" speedFactor="1.08" vaporized=""/>
    <tripinfo id="veh36" depart="24.00" departLane="-984508802_0" departPos="35.81" departSpeed="0.00" departDelay="0.60" arrival="136.00" arrivalLane="-671642327_0" arrivalPos="205.40" arrivalSpeed="5.52" duration="112.00" routeLength="1047.21" waitingTime="0.00" waitingCount="0" stopTime="0.00" timeLoss="14.78" rerouteNo="0" devices="tripinfo_veh36" vType="passenger" speedFactor="1.09" vaporized=""/>
    <tripinfo id="veh106" depart="69.00" departLane="-40330575#1_1" departPos="0.89" departSpeed="0.00" departDelay="0.10" arrival="138.00" arrivalLane="-48778502#0_1" arrivalPos="26.17" arrivalSpeed="13.54" duration="69.00" routeLength="814.97" waitingTime="0.00" waitingCount="0" stopTime="0.00" timeLoss="10.64" rerouteNo="0" devices="tripinfo_veh106" vType="passenger" speedFactor="1.03" vaporized=""/>
    <tripinfo id="veh29" depart="19.00" departLane="48736656#3_1" departPos="60.03" departSpeed="0.00" departDelay="0.15" arrival="141.00" arrivalLane="353939570#8_1" arrivalPos="81.94" arrivalSpeed="14.62" duration="122.00" routeLength="1514.39" waitingTime="0.00" waitingCount="0" stopTime="0.00" timeLoss="21.21" rerouteNo="0" devices="tripinfo_veh29" vType="passenger" speedFactor="1.10" vaporized=""/>
    <tripinfo id="veh33" depart="22.00" departLane="-647226815#1_1" departPos="15.57" departSpeed="0.00" departDelay="0.55" arrival="144.00" arrivalLane="671642324_1" arrivalPos="52.30" arrivalSpeed="13.77" duration="122.00" routeLength="1451.02" waitingTime="0.00" waitingCount="0" stopTime="0.00" timeLoss="20.96" rerouteNo="0" devices="tripinfo_veh33" vType="passenger" speedFactor="1.07" vaporized=""/>
    <tripinfo id="veh70" depart="46.00" departLane="48778481#2_2" departPos="39.47" departSpeed="0.00" departDelay="0.50" arrival="146.00" arrivalLane="48778478#2_1" arrivalPos="30.02" arrivalSpeed="10.45" duration="100.00" routeLength="852.61" waitingTime="0.00" waitingCount="0" stopTime="0.00" timeLoss="19.70" rerouteNo="0" devices="tripinfo_veh70" vType="passenger" speedFactor="0.83" vaporized=""/>
    <tripinfo id="veh41" depart="27.00" departLane="353939570#5_2" departPos="70.88" departSpeed="0.00" departDelay="0.35" arrival="155.00" arrivalLane="-256555440#1_1" arrivalPos="58.59" arrivalSpeed="16.20" duration="128.00" routeLength="1600.35" waitingTime="0.00" waitingCount="0" stopTime="0.00" timeLoss="25.85" rerouteNo="0" devices="tripinfo_veh41" vType="passenger" speedFactor="1.17" vaporized=""/>
    <tripinfo id="veh7" depart="5.00" departLane="43546092_1" departPos="104.34" departSpeed="0.00" departDelay="0.45" arrival="159.00" arrivalLane="-1205541342_1" arrivalPos="22.37" arrivalSpeed="5.30" duration="154.00" routeLength="1784.01" waitingTime="7.00" waitingCount="1" stopTime="0.00" timeLoss="30.23" rerouteNo="0" devices="tripinfo_veh7" vType="passenger" speedFactor="1.12" vaporized=""/>
    <tripinfo id="veh119" depart="78.00" departLane="859728205_0" departPos="4.43" departSpeed="0.00" departDelay="0.65" arrival="159.00" arrivalLane="-383582503_0" arrivalPos="105.76" arrivalSpeed="4.15" duration="81.00" routeLength="578.63" waitingTime="0.00" waitingCount="0" stopTime="0.00" timeLoss="14.30" rerouteNo="0" devices="tripinfo_veh119" vType="passenger" speedFactor="0.97" vaporized=""/>
    <tripinfo id="veh102" depart="67.00" departLane="1135856957_0" departPos="8.30" departSpeed="0.00" departDelay="0.70" arrival="160.00" arrivalLane="-48736620#5_1" arrivalPos="11.94" arrivalSpeed="13.55" duration="93.00" routeLength="896.40" waitingTime="5.00" waitingCount="1" stopTime="0.00" timeLoss="23.58" rerouteNo="0" devices="tripinfo_veh102" vType="passenger" speedFactor="1.00" vaporized=""/>
    <tripinfo id="veh56" depart="37.00" departLane="43546793_1" departPos="22.94" departSpeed="0.00" departDelay="0.60" arrival="168.00" arrivalLane="43544202#0_1" arrivalPos="273.61" arrivalSpeed="13.63" duration="131.00" routeLength="1574.75" waitingTime="0.00" waitingCount="0" stopTime="0.00" timeLoss="17.49" rerouteNo="0" devices="tripinfo_veh56" vType="passenger" speedFactor="1.02" vaporized=""/>
    <tripinfo id="veh64" depart="42.00" departLane="1136284448_1" departPos="18.79" departSpeed="0.00" departDelay="0.40" arrival="170.00" arrivalLane="-43546648#2_1" arrivalPos="81.52" arrivalSpeed="13.07" duration="128.00" routeLength="1509.96" waitingTime="0.00" waitingCount="0" stopTime="0.00" timeLoss="17.05" rerouteNo="0" devices="tripinfo_veh64" vType="passenger" speedFactor="1.02" vaporized=""/>
    <tripinfo id="veh28" depart="19.00" departLane="-945794109_1" departPos="1.88" departSpeed="0.00" departDelay="0.80" arrival="172.00" arrivalLane="E40_0" arrivalPos="24.19" arrivalSpeed="12.74" duration="153.00" routeLength="1747.89" waitingTime="0.00" waitingCount="0" stopTime="0.00" timeLoss="14.80" rerouteNo="0" devices="tripinfo_veh28" vType="passenger" speedFactor="0.94" vaporized=""/>
    <personinfo id="ped19" depart="95.00" type="DEFAULT_PEDTYPE" speedFactor="1.14" duration="78.00" waitingTime="0.00" timeLoss="7.32" traveltime="78.00">
        <walk depart="95.00" departPos="0.00" arrival="173.00" arrivalPos="8.73" duration="78.00" routeLength="111.83" timeLoss="7.32" maxSpeed="1.58"/>
    </personinfo>
    <tripinfo id="veh196" depart="128.00" departLane="-143207982#7_1" departPos="11.57" departSpeed="0.00" departDelay="0.60" arrival="180.00" arrivalLane="48736655_1" arrivalPos="17.43" arrivalSpeed="9.55" duration="52.00" routeLength="557.93" waitingTime="0.00" waitingCount="0" stopTime="0.00" timeLoss="9.81" rerouteNo="0" devices="tripinfo_veh196" vType="emergency" speedFactor="1.00" vaporized=""/>
    <tripinfo id="veh4" depart="3.00" departLane="-354252043_1" departPos="14.80" departSpeed="0.00" departDelay="0.40" arrival="184.00" arrivalLane="43546460#4_1" arrivalPos="196.01" arrivalSpeed="13.67" duration="181.00" routeLength="2116.07" waitingTime="0.00" waitingCount="0" stopTime="0.00" timeLoss="25.43" rerouteNo="0" devices="tripinfo_veh4" vType="passenger" speedFactor="1.02" vaporized=""/>
    <tripinfo id="veh42" depart="28.00" departLane="1205541344_0" departPos="48.78" departSpeed="0.00" departDelay="0.70" arrival="189.00" arrivalLane="-996984134_0" arrivalPos="80.94" arrivalSpeed="4.58" duration="161.00" routeLength="1860.70" waitingTime="0.00" waitingCount="0" stopTime="0.00" timeLoss="17.34" rerouteNo="0" devices="tripinfo_veh42" vType="passenger" speedFactor="1.05" vaporized=""/>
    <tripinfo id="veh223" depart="145.00" departLane="48736650#0_1" departPos="8.84" departSpeed="0.00" departDelay="0.05" arrival="195.00" arrivalLane="E35_1" arrivalPos="178.51" arrivalSpeed="11.65" duration="50.00" routeLength="494.16" waitingTime="0.00" waitingCount="0" stopTime="0.00" timeLoss="9.44" rerouteNo="0" devices="tripinfo_veh223" vType="motorcycle" speedFactor="0.93" vaporized=""/>
    <tripinfo id="veh110" depart="72.00" departLane="996984132_0" departPos="94.98" departSpeed="0.00" departDelay="0.50" arrival="198.00" arrivalLane="-40334244#2_1" arrivalPos="5.56" arrivalSpeed="8.74" duration="126.00" routeLength="1434.59" waitingTime="0.00" waitingCount="0" stopTime="0.00" timeLoss="18.93" rerouteNo="0" devices="tripinfo_veh110" vType="passenger" speedFactor="1.01" vaporized=""/>
    <tripinfo id="veh88" depart="58.00" departLane="48778508#5_1" departPos="13.52" departSpeed="0.00" departDelay="0.80" arrival="199.00" arrivalLane="-383582518#0_0" arrivalPos="49.42" arrivalSpeed="4.74" duration="141.00" routeLength="1143.06" waitingTime="8.00" waitingCount="1" stopTime="0.00" timeLoss="31.66" rerouteNo="0" devices="tripinfo_veh88" vType="passenger" speedFactor="0.87" vaporized=""/>
    <tripinfo id="veh125" depart="82.00" departLane="-43546449#1_1" departPos="3.37" departSpeed="0.00" departDelay="0.75" arrival="199.00" arrivalLane="E6_1" arrivalPos="42.45" arrivalSpeed="10.99" duration="117.00" routeLength="1052.36" waitingTime="0.00" waitingCount="0" stopTime="0.00" timeLoss="36.75" rerouteNo="0" devices="tripinfo_veh125" vType="motorcycle" speedFactor="1.01" vaporized=""/>
    <tripinfo id="veh94" depart="62.00" departLane="-40330557#2_1" departPos="54.74" departSpeed="0.00" departDelay="0.90" arrival="200.00" arrivalLane="-43546793_1" arrivalPos="192.09" arrivalSpeed="15.65" duration="138.00" routeLength="1730.21" waitingTime="0.00" waitingCount="0" stopTime="0.00" timeLoss="24.45" rerouteNo="0" devices="tripinfo_veh94" vType="passenger" speedFactor="1.13" vaporized=""/>
    <tripinfo id="veh98" depart="65.00" departLane="859728205_0" departPos="14.69" departSpeed="0.00" departDelay="1.30" arrival="201.00" arrivalLane="-40304754#2_1" arrivalPos="101.06" arrivalSpeed="13.50" duration="136.00" routeLength="1408.36" waitingTime="8.00" waitingCount="1" stopTime="0.00" timeLoss="27.44" rerouteNo="0" devices="tripinfo_veh98" vType="passenger" speedFactor="1.03" vaporized=""/>
    <tripinfo id="veh179" depart="117.00" departLane="222608881#1_1" departPos="7.12" departSpeed="0.00" departDelay="0.65" arrival="201.00" arrivalLane="-43544184#0_1" arrivalPos="27.32" arrivalSpeed="11.15" duration="84.00" routeLength="900.56" waitingTime="0.00" waitingCount="0" stopTime="0.00" timeLoss="16.26" rerouteNo="0" devices="tripinfo_veh179" vType="motorcycle" speedFactor="1.01" vaporized=""/>
    <tripinfo id="veh146" depart="95.00" departLane="-859726676_1" departPos="23.43" departSpeed="0.00" departDelay="0.10" arrival="204.00" arrivalLane="-401741889#1_1" arrivalPos="76.47" arrivalSpeed="13.80" duration="109.00" routeLength="1267.34" waitingTime="1.00" waitingCount="1" stopTime="0.00" timeLoss="16.30" rerouteNo="0" devices="tripinfo_veh146" vType="passenger" speedFactor="1.03" vaporized=""/>
    <personinfo id="ped22" depart="110.00" type="DEFAULT_PEDTYPE" speedFactor="1.26" duration="96.00" waitingTime="0.00" timeLoss="18.44" traveltime="96.00">
        <walk depart="110.00" departPos="0.00" arrival="206.00" arrivalPos="11.23" duration="96.00" routeLength="135.65" timeLoss="18.44" maxSpeed="1.75"/>
    </personinfo>
    <tripinfo id="veh92" depart="60.00" departLane="43546460#9_1" departPos="14.16" departSpeed="0.00" departDelay="0.20" arrival="206.00" arrivalLane="43544138#6_1" arrivalPos="39.12" arrivalSpeed="13.41" duration="146.00" routeLength="1743.12" waitingTime="0.00" waitingCount="0" stopTime="0.00" timeLoss="14.94" rerouteNo="0" devices="tripinfo_veh92" vType="passenger" speedFactor="0.97" vaporized=""/>
    <tripinfo id="veh59" depart="39.00" departLane="-250295383#3_1" departPos="6.54" departSpeed="0.00" departDelay="0.65" arrival="209.00" arrivalLane="-1136017144_0" arrivalPos="13.63" arrivalSpeed="5.70" duration="170.00" routeLength="1261.21" waitingTime="36.00" waitingCount="1" stopTime="0.00" timeLoss="61.18" rerouteNo="0" devices="tripinfo_veh59" vType="passenger" speedFactor="1.12" vaporized=""/>
    <tripinfo id="veh170" depart="111.00" departLane="-258551279_0" departPos="47.47" departSpeed="0.00" departDelay="0.50" arrival="211.00" arrivalLane="-383582506_0" arrivalPos="44.83" arrivalSpeed="3.97" duration="100.00" routeLength="769.26" waitingTime="0.00" waitingCount="0" stopTime="0.00" timeLoss="20.91" rerouteNo="0" devices="tripinfo_veh170" vType="motorcycle" speedFactor="1.00" vaporized=""/>
    <tripinfo id="veh49" depart="32.00" departLane="-48778485#1_1" departPos="21.68" departSpeed="0.00" departDelay="0.15" arrival="212.00" arrivalLane="-143207979#0_1" arrivalPos="24.79" arrivalSpeed="13.73" duration="180.00" routeLength="2026.17" waitingTime="8.00" waitingCount="1" stopTime="0.00" timeLoss="46.61" rerouteNo="0" devices="tripinfo_veh49" vType="passenger" speedFactor="1.12" vaporized=""/>
    <personinfo id="ped21" depart="105.00" type="DEFAULT_PEDTYPE" speedFactor="1.12" duration="108.00" waitingTime="0.00" timeLoss="12.07" traveltime="108.00">
        <walk depart="105.00" departPos="0.00" arrival="213.00" arrivalPos="38.07" duration="108.00" routeLength="149.07" timeLoss="12.07" maxSpeed="1.55"/>
    </personinfo>
    <tripinfo id="veh182" depart="119.00" departLane="-258551279_0" departPos="156.53" departSpeed="0.00" departDelay="0.70" arrival="215.00" arrivalLane="43544001#3_1" arrivalPos="41.26" arrivalSpeed="12.57" duration="96.00" routeLength="949.62" waitingTime="0.00" waitingCount="0" stopTime="0.00" timeLoss="15.85" rerouteNo="0" devices="tripinfo_veh182" vType="passenger" speedFactor="0.91" vaporized=""/>
    <tripinfo id="veh103" depart="67.00" departLane="-647998060#1_1" departPos="53.41" departSpeed="0.00" departDelay="0.05" arrival="216.00" arrivalLane="-222605088_0" arrivalPos="342.18" arrivalSpeed="4.94" duration="149.00" routeLength="1308.76" waitingTime="0.00" waitingCount="0" stopTime="0.00" timeLoss="27.20" rerouteNo="0" devices="tripinfo_veh103" vType="passenger" speedFactor="1.12" vaporized=""/>
    <tripinfo id="veh46" depart="30.00" departLane="-671642313_1" departPos="14.82" departSpeed="0.00" departDelay="0.10" arrival="217.00" arrivalLane="48797773_1" arrivalPos="23.80" arrivalSpeed="13.31" duration="187.00" routeLength="2051.22" waitingTime="6.00" waitingCount="1" stopTime="0.00" timeLoss="33.94" rerouteNo="0" devices="tripinfo_veh46" vType="delivery" speedFactor="0.98" vaporized=""/>
    <tripinfo id="veh140" depart="91.00" departLane="383582519_0" departPos="48.94" departSpeed="0.00" departDelay="0.00" arrival="220.00" arrivalLane="48778464#0_1" arrivalPos="23.97" arrivalSpeed="14.01" duration="129.00" routeLength="973.27" waitingTime="28.00" waitingCount="2" stopTime="0.00" timeLoss="54.94" rerouteNo="0" devices="tripinfo_veh140" vType="motorcycle" speedFactor="1.02" vaporized=""/>
    <tripinfo id="veh27" depart="18.00" departLane="256555440#0_1" departPos="4.02" departSpeed="0.00" departDelay="0.45" arrival="224.00" arrivalLane="43544624#3_1" arrivalPos="179.18" arrivalSpeed="11.81" duration="206.00" routeLength="2373.56" waitingTime="0.00" waitingCount="0" stopTime="0.00" timeLoss="33.56" rerouteNo="0" devices="tripinfo_veh27" vType="motorcycle" speedFactor="1.02" vaporized=""/>
    <tripinfo id="veh107" depart="70.00" departLane="1135772296#1_0" departPos="27.66" departSpeed="0.00" departDelay="0.45" arrival="226.00" arrivalLane="984508805_0" arrivalPos="34.81" arrivalSpeed="4.44" duration="156.00" routeLength="1275.35" waitingTime="0.00" waitingCount="0" stopTime="0.00" timeLoss="32.63" rerouteNo="0" devices="tripinfo_veh107" vType="motorcycle" speedFactor="0.84" vaporized=""/>
    <tripinfo id="veh87" depart="58.00" departLane="222609004#1_1" departPos="45.80" departSpeed="0.00" departDelay="1.45" arrival="231.00" arrivalLane="671642321_1" arrivalPos="87.26" arrivalSpeed="5.95" duration="173.00" routeLength="2066.21" waitingTime="11.00" waitingCount="1" stopTime="0.00" timeLoss="42.62" rerouteNo="0" devices="tripinfo_veh87" vType="passenger" speedFactor="1.25" vaporized=""/>
    <tripinfo id="veh168" depart="110.00" departLane="-40265775#1_1" departPos="41.21" departSpeed="0.00" departDelay="0.80" arrival="234.00" arrivalLane="-48797765#0_1" arrivalPos="17.81" arrivalSpeed="11.87" duration="124.00" routeLength="1138.23" waitingTime="11.00" waitingCount="1" stopTime="0.00" timeLoss="42.33" rerouteNo="0" devices="tripinfo_veh168" vType="passenger" speedFactor="1.07" vaporized=""/>
    <tripinfo id="veh126" depart="82.00" departLane="-43544179#9_1" departPos="26.28" departSpeed="0.00" departDelay="0.10" arrival="235.00" arrivalLane="859737784_1" arrivalPos="96.91" arrivalSpeed="12.33" duration="153.00" routeLength="1591.38" waitingTime="0.00" waitingCount="0" stopTime="0.00" timeLoss="21.12" rerouteNo="0" devices="tripinfo_veh126" vType="passenger" speedFactor="0.91" vaporized=""/>
    <tripinfo id="veh276" depart="180.00" departLane="289113778#0_1" departPos="65.76" departSpeed="0.00" departDelay="0.60" arrival="236.00" arrivalLane="647998062_1" arrivalPos="77.82" arrivalSpeed="14.15" duration="56.00" routeLength="634.13" waitingTime="0.00" waitingCount="0" stopTime="0.00" timeLoss="11.12" rerouteNo="0" devices="tripinfo_veh276" vType="delivery" speedFactor="1.08" vaporized=""/>
    <tripinfo id="veh6" depart="4.00" departLane="-222605087#0_1" departPos="0.12" departSpeed="0.00" departDelay="0.10" arrival="240.00" arrivalLane="48736640#1_1" arrivalPos="66.91" arrivalSpeed="12.12" duration="236.00" routeLength="2194.16" waitingTime="31.00" waitingCount="3" stopTime="0.00" timeLoss="59.40" rerouteNo="0" devices="tripinfo_veh6" vType="passenger" speedFactor="0.92" vaporized=""/>
    <tripinfo id="veh34" depart="23.00" departLane="43544138#2_1" departPos="0.12" departSpeed="0.00" departDelay="0.90" arrival="242.00" arrivalLane="-383582503_0" arrivalPos="105.76" arrivalSpeed="4.72" duration="219.00" routeLength="2577.63" waitingTime="0.00" waitingCount="0" stopTime="0.00" timeLoss="24.73" rerouteNo="0" devices="tripinfo_veh34" vType="passenger" speedFactor="1.04" vaporized=""/>
    <tripinfo id="veh79" depart="52.00" departLane="-222609002#0_1" departPos="69.59" departSpeed="0.00" departDelay="0.65" arrival="243.00" arrivalLane="647621857_0" arrivalPos="41.48" arrivalSpeed="4.90" duration="191.00" routeLength="1896.55" waitingTime="5.00" waitingCount="1" stopTime="0.00" timeLoss="40.38" rerouteNo="0" devices="tripinfo_veh79" vType="delivery" speedFactor="0.98" vaporized=""/>
    <personinfo id="ped7" depart="35.00" type="DEFAULT_PEDTYPE" speedFactor="1.14" duration="209.00" waitingTime="0.00" timeLoss="24.83" traveltime="209.00">
        <walk depart="35.00" departPos="0.00" arrival="244.00" arrivalPos="3.25" duration="209.00" routeLength="291.45" timeLoss="24.83" maxSpeed="1.58"/>
    </personinfo>
    <tripinfo id="veh121" depart="79.00" departLane="48797772_1" departPos="0.98" departSpeed="0.00" departDelay="0.35" arrival="245.00" arrivalLane="-40334245#2_1" arrivalPos="3.64" arrivalSpeed="7.96" duration="166.00" routeLength="1648.86" waitingTime="11.00" waitingCount="1" stopTime="0.00" timeLoss="34.77" rerouteNo="0" devices="tripinfo_veh121" vType="passenger" speedFactor="0.94" vaporized=""/>
    <personinfo id="ped9" depart="45.00" type="DEFAULT_PEDTYPE" speedFactor="1.06" duration="203.00" waitingTime="0.00" timeLoss="20.53" traveltime="203.00">
        <walk depart="45.00" departPos="0.00" arrival="248.00" arrivalPos="1.43" duration="203.00" routeLength="267.69" timeLoss="20.53" maxSpeed="1.47"/>
    </personinfo>
    <tripinfo id="veh60" depart="39.00" departLane="43544001#1_1" departPos="23.19" departSpeed="0.00" departDelay="0.00" arrival="250.00" arrivalLane="-92198452#0_1" arrivalPos="23.46" arrivalSpeed="14.14" duration="211.00" routeLength="2562.85" waitingTime="0.00" waitingCount="0" stopTime="0.00" timeLoss="30.18" rerouteNo="0" devices="tripinfo_veh60" vType="passenger" speedFactor="1.03" vaporized=""/>
    <tripinfo id="veh78" depart="51.00" departLane="-352818096#2_0" departPos="0.65" departSpeed="0.00" departDelay="0.30" arrival="250.00" arrivalLane="-143207982#0_1" arrivalPos="45.33" arrivalSpeed="13.86" duration="199.00" routeLength="2359.02" waitingTime="0.00" waitingCount="0" stopTime="0.00" timeLoss="24.11" rerouteNo="0" devices="tripinfo_veh78" vType="emergency" speedFactor="1.00" vaporized=""/>
    <tripinfo id="veh91" depart="60.00" departLane="-222605084#6_0" departPos="0.17" departSpeed="0.00" departDelay="0.85" arrival="253.00" arrivalLane="-1136284448_1" arrivalPos="34.50" arrivalSpeed="9.06" duration="193.00" routeLength="1283.29" waitingTime="13.00" waitingCount="2" stopTime="0.00" timeLoss="81.87" rerouteNo="0" devices="tripinfo_veh91" vType="passenger" speedFactor="1.10" vaporized=""/>
    <tripinfo id="veh239" depart="156.00" departLane="-671642324_1" departPos="8.05" departSpeed="0.00" departDelay="0.65" arrival="254.00" arrivalLane="578560104#2_1" arrivalPos="122.59" arrivalSpeed="12.31" duration="98.00" routeLength="854.47" waitingTime="12.00" waitingCount="1" stopTime="0.00" timeLoss="31.36" rerouteNo="0" devices="tripinfo_veh239" vType="passenger" speedFactor="0.97" vaporized=""/>
    <tripinfo id="veh32" depart="21.00" departLane="383582514_1" departPos="124.91" departSpeed="0.00" departDelay="0.20" arrival="257.00" arrivalLane="-492965073#2_2" arrivalPos="175.38" arrivalSpeed="8.47" duration="236.00" routeLength="2411.74" waitingTime="32.00" waitingCount="2" stopTime="0.00" timeLoss="61.80" rerouteNo="0" devices="tripinfo_veh32" vType="passenger" speedFactor="1.03" vaporized=""/>
    <tripinfo id="veh55" depart="36.00" departLane="-43573547#2_1" departPos="24.00" departSpeed="0.00" departDelay="0.25" arrival="257.00" arrivalLane="-383582503_0" arrivalPos="105.76" arrivalSpeed="4.25" duration="221.00" routeLength="2272.31" waitingTime="10.00" waitingCount="1" stopTime="0.00" timeLoss="32.89" rerouteNo="0" devices="tripinfo_veh55" vType="passenger" speedFactor="0.95" vaporized=""/>
    <tripinfo id="veh225" depart="147.00" departLane="48778485#0_1" departPos="6.37" departSpeed="0.00" departDelay="0.75" arrival="258.00" arrivalLane="-354259927_1" arrivalPos="310.58" arrivalSpeed="12.53" duration="111.00" routeLength="1188.13" waitingTime="4.00" waitingCount="1" stopTime="0.00" timeLoss="25.76" rerouteNo="0" devices="tripinfo_veh225" vType="motorcycle" speedFactor="0.96" vaporized=""/>
    <tripinfo id="veh31" depart="21.00" departLane="492965073#9_1" departPos="32.35" departSpeed="0.00" departDelay="0.85" arrival="259.00" arrivalLane="-1205541342_1" arrivalPos="22.37" arrivalSpeed="4.10" duration="238.00" routeLength="1018.71" waitingTime="0.00" waitingCount="0" stopTime="0.00" timeLoss="18.00" rerouteNo="0" devices="tripinfo_veh31" vType="bicycle" speedFactor="0.83" vaporized=""/>
    <tripinfo id="veh138" depart="90.00" departLane="43548506_1" departPos="94.76" departSpeed="0.00" departDelay="0.30" arrival="264.00" arrivalLane="984521611#1_0" arrivalPos="22.34" arrivalSpeed="5.53" duration="174.00" routeLength="1570.21" waitingTime="22.00" waitingCount="1" stopTime="0.00" timeLoss="58.77" rerouteNo="0" devices="tripinfo_veh138" vType="passenger" speedFactor="1.06" vaporized=""/>