<?xml version="1.0" encoding="UTF-8"?>

<!-- generated on 2025-06-15 21:37:43 by Eclipse SUMO sumo Version 1.22.0
<sumoConfiguration xmlns:xsi="http://www.w3.org/2001/XMLSchema-instance" xsi:noNamespaceSchemaLocation="http://sumo.dlr.de/xsd/sumoConfiguration.xsd">

    <input>
        <net-file value="E:/licenta/oras-mediu/2025-06-05-11-45-23\osm.net.xml"/>
        <route-files value="E:/licenta/oras-mediu/2025-06-05-11-45-23\full.rou.xml,E:/licenta/oras-mediu/2025-06-05-11-45-23\ ped.rou.xml,E:/licenta/oras-mediu/2025-06-05-11-45-23\ truck.rou.xml"/>
        <additional-files value="E:/licenta/oras-mediu/2025-06-05-11-45-23\osm.poly.xml,E:/licenta/oras-mediu/2025-06-05-11-45-23\ vtypes.xml"/>
    </input>

    <output>
        <summary-output value="E:/licenta/oras-mediu/2025-06-05-11-45-23\summary.xml"/>
        <tripinfo-output value="E:/licenta/oras-mediu/2025-06-05-11-45-23\tripinfo.xml"/>
    </output>

    <processing>
        <ignore-route-errors value="true"/>
        <tls.actuated.jam-threshold value="30"/>
    </processing>

    <routing>
        <device.rerouting.adaptation-steps value="18"/>
        <device.rerouting.adaptation-interval value="10"/>
    </routing>

    <report>
        <verbose value="true"/>
        <duration-log.statistics value="true"/>
        <no-step-log value="true"/>
    </report>

    <traci_server>
        <remote-port value="64251"/>
    </traci_server>

    <gui_only>
        <gui-settings-file value="E:/licenta/oras-mediu/2025-06-05-11-45-23\osm.view.xml"/>
    </gui_only>

</sumoConfiguration>
-->

<tripinfos xmlns:xsi="http://www.w3.org/2001/XMLSchema-instance" xsi:noNamespaceSchemaLocation="http://sumo.dlr.de/xsd/tripinfo_file.xsd">
    <tripinfo id="veh24" depart="18.00" departLane="222605087#3_1" departPos="1.59" departSpeed="0.00" departDelay="0.72" arrival="61.00" arrivalLane="-945793490#1_1" arrivalPos="16.18" arrivalSpeed="6.11" duration="43.00" routeLength="237.36" waitingTime="0.00" waitingCount="0" stopTime="0.00" timeLoss="6.00" rerouteNo="0" devices="tripinfo_veh24" vType="passenger" speedFactor="1.15" vaporized=""/>
    <tripinfo id="veh26" depart="19.00" departLane="40329447_1" departPos="12.81" departSpeed="0.00" departDelay="0.28" arrival="87.00" arrivalLane="258551317_1" arrivalPos="85.97" arrivalSpeed="13.62" duration="68.00" routeLength="637.26" waitingTime="0.00" waitingCount="0" stopTime="0.00" timeLoss="18.14" rerouteNo="0" devices="tripinfo_veh26" vType="passenger" speedFactor="0.99" vaporized=""/>
    <tripinfo id="veh50" depart="36.00" departLane="43546648#5_1" departPos="3.52" departSpeed="0.00" departDelay="0.00" arrival="98.00" arrivalLane="40306162#1_1" arrivalPos="38.73" arrivalSpeed="15.42" duration="62.00" routeLength="614.38" waitingTime="0.00" waitingCount="0" stopTime="0.00" timeLoss="18.22" rerouteNo="0" devices="tripinfo_veh50" vType="passenger" speedFactor="1.12" vaporized=""/>
    <tripinfo id="veh30" depart="22.00" departLane="383582512#1_0" departPos="9.72" departSpeed="0.00" departDelay="0.40" arrival="103.00" arrivalLane="43544202#1_1" arrivalPos="96.02" arrivalSpeed="12.39" duration="81.00" routeLength="836.75" waitingTime="0.00" waitingCount="0" stopTime="0.00" timeLoss="12.00" rerouteNo="0" devices="tripinfo_veh30" vType="passenger" speedFactor="0.94" vaporized=""/>
    <tripinfo id="veh18" depart="13.00" departLane="-48778521#0_1" departPos="11.71" departSpeed="0.00" departDelay="0.04" arrival="112.00" arrivalLane="-43546053#1_1" arrivalPos="96.08" arrivalSpeed="11.31" duration="99.00" routeLength="922.79" waitingTime="0.00" waitingCount="0" stopTime="0.00" timeLoss="16.77" rerouteNo="0" devices="tripinfo_veh18" vType="passenger" speedFactor="0.89" vaporized=""/>
    <tripinfo id="veh8" depart="6.00" departLane="383582511#0_0" departPos="43.01" departSpeed="0.00" departDelay="0.24" arrival="117.00" arrivalLane="92198453#3_1" arrivalPos="0.20" arrivalSpeed="12.58" duration="111.00" routeLength="929.70" waitingTime="0.00" waitingCount="0" stopTime="0.00" timeLoss="15.33" rerouteNo="0" devices="tripinfo_veh8" vType="passenger" speedFactor="0.92" vaporized=""/>
    <tripinfo id="veh6" depart="5.00" departLane="-43544184#1_1" departPos="0.16" departSpeed="0.00" departDelay="0.68" arrival="120.00" arrivalLane="-92198452#2_1" arrivalPos="56.65" arrivalSpeed="14.03" duration="115.00" routeLength="1422.89" waitingTime="0.00" waitingCount="0" stopTime="0.00" timeLoss="12.40" rerouteNo="0" devices="tripinfo_veh6" vType="passenger" speedFactor="1.02" vaporized=""/>
    <tripinfo id="veh154" depart="111.00" departLane="-222609002#3_1" departPos="89.04" departSpeed="0.00" departDelay="0.12" arrival="120.00" arrivalLane="-222609002#1_1" arrivalPos="24.71" arrivalSpeed="14.19" duration="9.00" routeLength="70.69" waitingTime="0.00" waitingCount="0" stopTime="0.00" timeLoss="3.91" rerouteNo="0" devices="tripinfo_veh154" vType="passenger" speedFactor="1.07" vaporized=""/>
    <tripinfo id="veh40" depart="29.00" departLane="-43544184#1_1" departPos="0.13" departSpeed="0.00" departDelay="0.20" arrival="125.00" arrivalLane="-222609002#4_1" arrivalPos="52.31" arrivalSpeed="13.85" duration="96.00" routeLength="1080.44" waitingTime="0.00" waitingCount="0" stopTime="0.00" timeLoss="19.49" rerouteNo="0" devices="tripinfo_veh40" vType="passenger" speedFactor="1.06" vaporized=""/>
    <tripinfo id="veh114" depart="83.00" departLane="48736620#0_1" departPos="19.92" departSpeed="0.00" departDelay="0.92" arrival="125.00" arrivalLane="48736655_1" arrivalPos="17.43" arrivalSpeed="10.00" duration="42.00" routeLength="327.94" waitingTime="2.00" waitingCount="1" stopTime="0.00" timeLoss="17.44" rerouteNo="0" devices="tripinfo_veh114" vType="delivery" speedFactor="1.06" vaporized=""/>
    <tripinfo id="veh56" depart="41.00" departLane="-48778516_1" departPos="6.08" departSpeed="0.00" departDelay="0.68" arrival="135.00" arrivalLane="48778485#1_1" arrivalPos="18.27" arrivalSpeed="13.19" duration="94.00" routeLength="1016.34" waitingTime="0.00" waitingCount="0" stopTime="0.00" timeLoss="18.81" rerouteNo="0" devices="tripinfo_veh56" vType="passenger" speedFactor="1.02" vaporized=""/>
    <tripinfo id="veh158" depart="114.00" departLane="859734513_0" departPos="26.33" departSpeed="0.00" departDelay="0.24" arrival="135.00" arrivalLane="-945794108_1" arrivalPos="20.90" arrivalSpeed="9.50" duration="21.00" routeLength="124.36" waitingTime="0.00" waitingCount="0" stopTime="0.00" timeLoss="4.41" rerouteNo="0" devices="tripinfo_veh158" vType="passenger" speedFactor="1.15" vaporized=""/>
    <personinfo id="ped1" depart="5.00" type="DEFAULT_PEDTYPE" speedFactor="0.83" duration="134.00" waitingTime="0.00" timeLoss="14.26" traveltime="134.00">
        <walk depart="5.00" departPos="0.00" arrival="139.00" arrivalPos="36.47" duration="134.00" routeLength="138.20" timeLoss="14.26" maxSpeed="1.15"/>
    </personinfo>
    <tripinfo id="veh14" depart="11.00" departLane="-492965073#6_2" departPos="0.06" departSpeed="0.00" departDelay="0.92" arrival="142.00" arrivalLane="40236232#1_1" arrivalPos="114.84" arrivalSpeed="12.71" duration="131.00" routeLength="1052.15" waitingTime="4.00" waitingCount="1" stopTime="0.00" timeLoss="47.26" rerouteNo="0" devices="tripinfo_veh14" vType="emergency" speedFactor="1.00" vaporized=""/>
    <tripinfo id="veh102" depart="74.00" departLane="-48778475#1_1" departPos="3.16" departSpeed="0.00" departDelay="0.56" arrival="148.00" arrivalLane="48797771#0_1" arrivalPos="26.57" arrivalSpeed="8.41" duration="74.00" routeLength="651.41" waitingTime="0.00" waitingCount="0" stopTime="0.00" timeLoss="27.38" rerouteNo="0" devices="tripinfo_veh102" vType="passenger" speedFactor="1.12" vaporized=""/>
    <tripinfo id="veh166" depart="120.00" departLane="40314853#3_1" departPos="24.10" departSpeed="0.00" departDelay="0.48" arrival="156.00" arrivalLane="E26_2" arrivalPos="166.60" arrivalSpeed="12.96" duration="36.00" routeLength="376.17" waitingTime="0.00" waitingCount="0" stopTime="0.00" timeLoss="7.18" rerouteNo="0" devices="tripinfo_veh166" vType="emergency" speedFactor="1.00" vaporized=""/>
    <tripinfo id="veh95" depart="69.00" departLane="48778518_1" departPos="14.85" departSpeed="0.00" departDelay="0.60" arrival="159.00" arrivalLane="-48778498#2_1" arrivalPos="98.02" arrivalSpeed="10.71" duration="90.00" routeLength="873.33" waitingTime="4.00" waitingCount="1" stopTime="0.00" timeLoss="20.23" rerouteNo="0" devices="tripinfo_veh95" vType="motorcycle" speedFactor="0.94" vaporized=""/>
    <tripinfo id="veh46" depart="34.00" departLane="-43546688#0_1" departPos="6.41" departSpeed="0.00" departDelay="0.88" arrival="160.00" arrivalLane="859729932_0" arrivalPos="83.63" arrivalSpeed="4.17" duration="126.00" routeLength="974.78" waitingTime="0.00" waitingCount="0" stopTime="0.00" timeLoss="30.05" rerouteNo="0" devices="tripinfo_veh46" vType="motorcycle" speedFactor="0.90" vaporized=""/>
    <tripinfo id="veh130" depart="94.00" departLane="1136284448_1" departPos="20.37" departSpeed="0.00" departDelay="0.40" arrival="160.00" arrivalLane="984508802_0" arrivalPos="57.38" arrivalSpeed="5.72" duration="66.00" routeLength="568.58" waitingTime="0.00" waitingCount="0" stopTime="0.00" timeLoss="17.64" rerouteNo="0" devices="tripinfo_veh130" vType="passenger" speedFactor="1.13" vaporized=""/>
    <tripinfo id="veh73" depart="53.00" departLane="-40314876_1" departPos="31.50" departSpeed="0.00" departDelay="0.44" arrival="163.00" arrivalLane="40299241#2_1" arrivalPos="144.50" arrivalSpeed="14.56" duration="110.00" routeLength="959.35" waitingTime="21.00" waitingCount="1" stopTime="0.00" timeLoss="41.38" rerouteNo="0" devices="tripinfo_veh73" vType="passenger" speedFactor="1.06" vaporized=""/>
    <tripinfo id="veh107" depart="78.00" departLane="383582513_0" departPos="10.69" departSpeed="0.00" departDelay="0.96" arrival="166.00" arrivalLane="48778494#0_1" arrivalPos="50.01" arrivalSpeed="12.41" duration="88.00" routeLength="873.32" waitingTime="0.00" waitingCount="0" stopTime="0.00" timeLoss="18.27" rerouteNo="0" devices="tripinfo_veh107" vType="motorcycle" speedFactor="1.04" vaporized=""/>
    <tripinfo id="veh39" depart="29.00" departLane="-1205541343#1_1" departPos="22.14" departSpeed="0.00" departDelay="0.92" arrival="168.00" arrivalLane="-383582511#0_0" arrivalPos="95.20" arrivalSpeed="1.65" duration="139.00" routeLength="858.66" waitingTime="0.00" waitingCount="0" stopTime="0.00" timeLoss="23.25" rerouteNo="0" devices="tripinfo_veh39" vType="passenger" speedFactor="0.88" vaporized=""/>
    <tripinfo id="veh31" depart="23.00" departLane="-40330575#1_1" departPos="0.09" departSpeed="0.00" departDelay="0.68" arrival="171.00" arrivalLane="492965073#6_1" arrivalPos="1.90" arrivalSpeed="14.09" duration="148.00" routeLength="1452.72" waitingTime="7.00" waitingCount="3" stopTime="0.00" timeLoss="46.41" rerouteNo="0" devices="tripinfo_veh31" vType="passenger" speedFactor="1.10" vaporized=""/>
    <tripinfo id="veh12" depart="9.00" departLane="-984508803_0" departPos="13.28" departSpeed="0.00" departDelay="0.36" arrival="172.00" arrivalLane="-E12.34_1" arrivalPos="55.77" arrivalSpeed="13.96" duration="163.00" routeLength="1626.83" waitingTime="27.00" waitingCount="2" stopTime="0.00" timeLoss="47.64" rerouteNo="0" devices="tripinfo_veh12" vType="passenger" speedFactor="1.04" vaporized=""/>
    <tripinfo id="veh34" depart="25.00" departLane="E42_1" departPos="68.07" departSpeed="0.00" departDelay="0.52" arrival="172.00" arrivalLane="-1136284448_1" arrivalPos="34.50" arrivalSpeed="7.79" duration="147.00" routeLength="1759.97" waitingTime="0.00" waitingCount="0" stopTime="0.00" timeLoss="23.22" rerouteNo="0" devices="tripinfo_veh34" vType="passenger" speedFactor="1.07" vaporized=""/>
    <tripinfo id="veh69" depart="50.00" departLane="-40265774#1_2" departPos="36.53" departSpeed="0.00" departDelay="0.32" arrival="174.00" arrivalLane="-48778518_1" arrivalPos="22.20" arrivalSpeed="5.39" duration="124.00" routeLength="1294.85" waitingTime="0.00" waitingCount="0" stopTime="0.00" timeLoss="20.56" rerouteNo="0" devices="tripinfo_veh69" vType="motorcycle" speedFactor="0.94" vaporized=""/>
    <tripinfo id="veh28" depart="21.00" departLane="43544001#15_1" departPos="7.04" departSpeed="0.00" departDelay="0.84" arrival="177.00" arrivalLane="-43546506#0_1" arrivalPos="307.08" arrivalSpeed="7.75" duration="156.00" routeLength="1837.06" waitingTime="0.00" waitingCount="0" stopTime="0.00" timeLoss="24.30" rerouteNo="0" devices="tripinfo_veh28" vType="motorcycle" speedFactor="1.02" vaporized=""/>
    <tripinfo id="veh89" depart="65.00" departLane="-671642321_1" departPos="28.95" departSpeed="0.00" departDelay="0.92" arrival="178.00" arrivalLane="-250295379_1" arrivalPos="126.33" arrivalSpeed="14.99" duration="113.00" routeLength="985.59" waitingTime="17.00" waitingCount="1" stopTime="0.00" timeLoss="39.31" rerouteNo="0" devices="tripinfo_veh89" vType="passenger" speedFactor="1.10" vaporized=""/>
    <tripinfo id="veh90" depart="65.00" departLane="-647610982#0_1" departPos="34.98" departSpeed="0.00" departDelay="0.20" arrival="178.00" arrivalLane="-48736613#3_1" arrivalPos="41.47" arrivalSpeed="13.13" duration="113.00" routeLength="1093.72" waitingTime="5.00" waitingCount="1" stopTime="0.00" timeLoss="29.96" rerouteNo="0" devices="tripinfo_veh90" vType="passenger" speedFactor="0.97" vaporized=""/>
    <tripinfo id="veh52" depart="38.00" departLane="43546789#3_1" departPos="63.71" departSpeed="0.00" departDelay="0.56" arrival="181.00" arrivalLane="-530103975#0_1" arrivalPos="70.63" arrivalSpeed="12.95" duration="143.00" routeLength="1300.82" waitingTime="21.00" waitingCount="1" stopTime="0.00" timeLoss="46.25" rerouteNo="0" devices="tripinfo_veh52" vType="delivery" speedFactor="0.99" vaporized=""/>
    <tripinfo id="veh0" depart="0.00" departLane="1135856746#1_1" departPos="123.02" departSpeed="0.00" departDelay="0.00" arrival="182.00" arrivalLane="-859726677#0_1" arrivalPos="35.20" arrivalSpeed="5.19" duration="182.00" routeLength="1479.74" waitingTime="0.00" waitingCount="0" stopTime="0.00" timeLoss="36.21" rerouteNo="0" devices="tripinfo_veh0" vType="motorcycle" speedFactor="0.98" vaporized=""/>
    <tripinfo id="veh20" depart="15.00" departLane="40334245#0_1" departPos="71.41" departSpeed="0.00" departDelay="0.60" arrival="185.00" arrivalLane="647621858_0" arrivalPos="84.34" arrivalSpeed="3.69" duration="170.00" routeLength="1384.27" waitingTime="12.00" waitingCount="1" stopTime="0.00" timeLoss="37.98" rerouteNo="0" devices="tripinfo_veh20" vType="passenger" speedFactor="0.87" vaporized=""/>
    <tripinfo id="veh61" depart="44.00" departLane="48797765#1_1" departPos="26.63" departSpeed="0.00" departDelay="0.08" arrival="190.00" arrivalLane="48736648#1_1" arrivalPos="233.53" arrivalSpeed="3.93" duration="146.00" routeLength="1070.88" waitingTime="0.00" waitingCount="0" stopTime="0.00" timeLoss="27.49" rerouteNo="0" devices="tripinfo_veh61" vType="passenger" speedFactor="0.92" vaporized=""/>
    <tripinfo id="veh79" depart="57.00" departLane="48736601_1" departPos="123.62" departSpeed="0.00" departDelay="0.12" arrival="190.00" arrivalLane="-258551297#1_0" arrivalPos="131.29" arrivalSpeed="4.51" duration="133.00" routeLength="1155.23" waitingTime="13.00" waitingCount="1" stopTime="0.00" timeLoss="30.07" rerouteNo="0" devices="tripinfo_veh79" vType="delivery" speedFactor="0.98" vaporized=""/>
    <personinfo id="ped30" depart="150.00" type="DEFAULT_PEDTYPE" speedFactor="0.94" duration="46.00" waitingTime="0.00" timeLoss="5.57" traveltime="46.00">
        <walk depart="150.00" departPos="0.00" arrival="196.00" arrivalPos="1.74" duration="46.00" routeLength="52.51" timeLoss="5.57" maxSpeed="1.30"/>
    </personinfo>
    <tripinfo id="veh27" depart="20.00" departLane="-1250915721#0_1" departPos="3.09" departSpeed="0.00" departDelay="0.56" arrival="199.00" arrivalLane="48736647#1_1" arrivalPos="90.38" arrivalSpeed="12.32" duration="179.00" routeLength="1855.77" waitingTime="0.00" waitingCount="0" stopTime="0.00" timeLoss="24.55" rerouteNo="0" devices="tripinfo_veh27" vType="passenger" speedFactor="0.97" vaporized=""/>
    <tripinfo id="veh192" depart="139.00" departLane="43546519#2_1" departPos="1.16" departSpeed="0.00" departDelay="0.76" arrival="204.00" arrivalLane="E12_1" arrivalPos="184.12" arrivalSpeed="14.43" duration="65.00" routeLength="766.14" waitingTime="0.00" waitingCount="0" stopTime="0.00" timeLoss="11.26" rerouteNo="0" devices="tripinfo_veh192" vType="delivery" speedFactor="1.08" vaporized=""/>
    <tripinfo id="veh118" depart="85.00" departLane="-48778492_1" departPos="21.56" departSpeed="0.00" departDelay="0.04" arrival="205.00" arrivalLane="40236228#1_1" arrivalPos="51.45" arrivalSpeed="13.25" duration="120.00" routeLength="1222.40" waitingTime="3.00" waitingCount="1" stopTime="0.00" timeLoss="29.30" rerouteNo="0" devices="tripinfo_veh118" vType="motorcycle" speedFactor="1.04" vaporized=""/>
    <tripinfo id="veh35" depart="26.00" departLane="996489799#2_0" departPos="52.50" departSpeed="0.00" departDelay="0.80" arrival="206.00" arrivalLane="-647640187_0" arrivalPos="72.26" arrivalSpeed="5.41" duration="180.00" routeLength="1851.61" waitingTime="0.00" waitingCount="0" stopTime="0.00" timeLoss="34.24" rerouteNo="0" devices="tripinfo_veh35" vType="passenger" speedFactor="1.04" vaporized=""/>
    <tripinfo id="veh55" depart="40.00" departLane="92198452#2_1" departPos="16.41" departSpeed="0.00" departDelay="0.40" arrival="208.00" arrivalLane="-67712683_1" arrivalPos="77.22" arrivalSpeed="12.99" duration="168.00" routeLength="1545.17" waitingTime="14.00" waitingCount="1" stopTime="0.00" timeLoss="46.45" rerouteNo="0" devices="tripinfo_veh55" vType="passenger" speedFactor="0.95" vaporized=""/>
    <tripinfo id="veh115" depart="83.00" departLane="-43573547#6_1" departPos="23.98" departSpeed="0.00" departDelay="0.20" arrival="209.00" arrivalLane="-289113778#0_1" arrivalPos="105.65" arrivalSpeed="16.18" duration="126.00" routeLength="1613.14" waitingTime="0.00" waitingCount="0" stopTime="0.00" timeLoss="26.35" rerouteNo="0" devices="tripinfo_veh115" vType="passenger" speedFactor="1.21" vaporized=""/>
    <tripinfo id="veh172" depart="124.00" departLane="-40269009#0_1" departPos="7.00" departSpeed="0.00" departDelay="0.16" arrival="209.00" arrivalLane="-898519021_1" arrivalPos="62.05" arrivalSpeed="4.23" duration="85.00" routeLength="602.64" waitingTime="21.00" waitingCount="1" stopTime="0.00" timeLoss="37.89" rerouteNo="0" devices="tripinfo_veh172" vType="passenger" speedFactor="0.98" vaporized=""/>
    <tripinfo id="veh4" depart="3.00" departLane="43546570#0_1" departPos="1.89" departSpeed="0.00" departDelay="0.12" arrival="214.00" arrivalLane="-383582512#0_0" arrivalPos="35.67" arrivalSpeed="5.53" duration="211.00" routeLength="2571.05" waitingTime="0.00" waitingCount="0" stopTime="0.00" timeLoss="27.07" rerouteNo="0" devices="tripinfo_veh4" vType="passenger" speedFactor="1.08" vaporized=""/>
    <tripinfo id="veh32" depart="24.00" departLane="43546648#2_1" departPos="39.36" departSpeed="0.00" departDelay="0.96" arrival="214.00" arrivalLane="-945793485#0_1" arrivalPos="25.01" arrivalSpeed="4.55" duration="190.00" routeLength="812.28" waitingTime="0.00" waitingCount="0" stopTime="0.00" timeLoss="14.25" rerouteNo="0" devices="tripinfo_veh32" vType="bicycle" speedFactor="0.83" vaporized=""/>
    <tripinfo id="veh112" depart="81.00" departLane="1250915720#1_1" departPos="2.29" departSpeed="0.00" departDelay="0.36" arrival="214.00" arrivalLane="-40329447_1" arrivalPos="12.91" arrivalSpeed="11.82" duration="133.00" routeLength="1302.19" waitingTime="4.00" waitingCount="1" stopTime="0.00" timeLoss="28.93" rerouteNo="0" devices="tripinfo_veh112" vType="passenger" speedFactor="1.11" vaporized=""/>
    <tripinfo id="veh127" depart="92.00" departLane="-40334244#1_1" departPos="46.37" departSpeed="0.00" departDelay="0.56" arrival="215.00" arrivalLane="-48778485#0_1" arrivalPos="25.13" arrivalSpeed="10.71" duration="123.00" routeLength="1330.27" waitingTime="0.00" waitingCount="0" stopTime="0.00" timeLoss="21.26" rerouteNo="0" devices="tripinfo_veh127" vType="delivery" speedFactor="1.00" vaporized=""/>
    <tripinfo id="veh139" depart="101.00" departLane="48778508#4_1" departPos="1.41" departSpeed="0.00" departDelay="0.92" arrival="217.00" arrivalLane="859732801#1_1" arrivalPos="25.05" arrivalSpeed="12.06" duration="116.00" routeLength="1221.16" waitingTime="0.00" waitingCount="0" stopTime="0.00" timeLoss="20.14" rerouteNo="0" devices="tripinfo_veh139" vType="passenger" speedFactor="0.96" vaporized=""/>
    <tripinfo id="veh129" depart="93.00" departLane="-48778505#0_1" departPos="195.99" departSpeed="0.00" departDelay="0.12" arrival="219.00" arrivalLane="-40236203#3_1" arrivalPos="78.82" arrivalSpeed="9.95" duration="126.00" routeLength="1154.72" waitingTime="0.00" waitingCount="0" stopTime="0.00" timeLoss="17.84" rerouteNo="0" devices="tripinfo_veh129" vType="passenger" speedFactor="0.80" vaporized=""/>
    <tripinfo id="veh99" depart="72.00" departLane="40266621_1" departPos="3.14" departSpeed="0.00" departDelay="0.72" arrival="220.00" arrivalLane="250295384_1" arrivalPos="124.18" arrivalSpeed="13.56" duration="148.00" routeLength="1552.05" waitingTime="5.00" waitingCount="1" stopTime="0.00" timeLoss="34.54" rerouteNo="0" devices="tripinfo_veh99" vType="passenger" speedFactor="1.03" vaporized=""/>
    <tripinfo id="veh104" depart="75.00" departLane="-43546688#1_1" departPos="11.29" departSpeed="0.00" departDelay="0.12" arrival="221.00" arrivalLane="43546379_1" arrivalPos="170.39" arrivalSpeed="13.09" duration="146.00" routeLength="1431.10" waitingTime="7.00" waitingCount="1" stopTime="0.00" timeLoss="40.85" rerouteNo="0" devices="tripinfo_veh104" vType="passenger" speedFactor="1.03" vaporized=""/>
    <tripinfo id="veh110" depart="80.00" departLane="264868325_1" departPos="89.55" departSpeed="0.00" departDelay="0.80" arrival="221.00" arrivalLane="-354252035_1" arrivalPos="106.56" arrivalSpeed="13.84" duration="141.00" routeLength="1628.74" waitingTime="0.00" waitingCount="0" stopTime="0.00" timeLoss="20.30" rerouteNo="0" devices="tripinfo_veh110" vType="passenger" speedFactor="1.02" vaporized=""/>
    <tripinfo id="veh264" depart="191.00" departLane="-40236153#0_1" departPos="38.98" departSpeed="0.00" departDelay="0.92" arrival="222.00" arrivalLane="-40304754#4_1" arrivalPos="101.37" arrivalSpeed="12.12" duration="31.00" routeLength="302.70" waitingTime="0.00" waitingCount="0" stopTime="0.00" timeLoss="4.64" rerouteNo="0" devices="tripinfo_veh264" vType="passenger" speedFactor="0.87" vaporized=""/>
    <tripinfo id="veh125" depart="90.00" departLane="-250295384_1" departPos="13.12" departSpeed="0.00" departDelay="0.00" arrival="224.00" arrivalLane="354252035_1" arrivalPos="106.56" arrivalSpeed="11.90" duration="134.00" routeLength="1446.05" waitingTime="0.00" waitingCount="0" stopTime="0.00" timeLoss="26.31" rerouteNo="0" devices="tripinfo_veh125" vType="motorcycle" speedFactor="1.01" vaporized=""/>
    <tripinfo id="veh84" depart="61.00" departLane="48736620#3_2" departPos="4.18" departSpeed="0.00" departDelay="0.52" arrival="227.00" arrivalLane="1135854210_1" arrivalPos="13.11" arrivalSpeed="5.39" duration="166.00" routeLength="1117.48" waitingTime="50.00" waitingCount="2" stopTime="0.00" timeLoss="79.50" rerouteNo="0" devices="tripinfo_veh84" vType="passenger" speedFactor="0.98" vaporized=""/>
    <tripinfo id="veh97" depart="70.00" departLane="48797766#0_1" departPos="17.55" departSpeed="0.00" departDelay="0.16" arrival="228.00" arrivalLane="-984521612#0_0" arrivalPos="12.48" arrivalSpeed="5.50" duration="158.00" routeLength="973.48" waitingTime="53.00" waitingCount="1" stopTime="0.00" timeLoss="80.70" rerouteNo="0" devices="tripinfo_veh97" vType="passenger" speedFactor="1.02" vaporized=""/>
    <tripinfo id="veh78" depart="57.00" departLane="383582499#4_1" departPos="40.85" departSpeed="0.00" departDelay="0.84" arrival="229.00" arrivalLane="1136289990_1" arrivalPos="14.40" arrivalSpeed="7.34" duration="172.00" routeLength="2037.43" waitingTime="0.00" waitingCount="0" stopTime="0.00" timeLoss="18.94" rerouteNo="0" devices="tripinfo_veh78" vType="emergency" speedFactor="1.00" vaporized=""/>
    <tripinfo id="veh58" depart="42.00" departLane="-48736632#0_1" departPos="47.14" departSpeed="0.00" departDelay="0.24" arrival="230.00" arrivalLane="492965073#7_1" arrivalPos="34.78" arrivalSpeed="14.04" duration="188.00" routeLength="1338.57" waitingTime="53.00" waitingCount="4" stopTime="0.00" timeLoss="94.75" rerouteNo="0" devices="tripinfo_veh58" vType="passenger" speedFactor="1.06" vaporized=""/>
    <tripinfo id="veh142" depart="103.00" departLane="859728206_0" departPos="17.49" departSpeed="0.00" departDelay="0.76" arrival="237.00" arrivalLane="-48736646#0_1" arrivalPos="88.89" arrivalSpeed="11.46" duration="134.00" routeLength="1259.80" waitingTime="0.00" waitingCount="0" stopTime="0.00" timeLoss="22.88" rerouteNo="0" devices="tripinfo_veh142" vType="motorcycle" speedFactor="0.98" vaporized=""/>
    <tripinfo id="veh60" depart="44.00" departLane="-48736655_1" departPos="6.23" departSpeed="0.00" departDelay="0.80" arrival="240.00" arrivalLane="-250295382_1" arrivalPos="106.55" arrivalSpeed="13.37" duration="196.00" routeLength="1753.30" waitingTime="33.00" waitingCount="3" stopTime="0.00" timeLoss="69.54" rerouteNo="0" devices="tripinfo_veh60" vType="passenger" speedFactor="1.03" vaporized=""/>
    <tripinfo id="veh156" depart="113.00" departLane="43544184#2_1" departPos="20.29" departSpeed="0.00" departDelay="0.68" arrival="241.00" arrivalLane="647226815#1_1" arrivalPos="42.65" arrivalSpeed="11.71" duration="128.00" routeLength="1259.97" waitingTime="0.00" waitingCount="0" stopTime="0.00" timeLoss="20.81" rerouteNo="0" devices="tripinfo_veh156" vType="passenger" speedFactor="0.90" vaporized=""/>
    <tripinfo id="veh22" depart="16.00" departLane="-671642313_1" departPos="15.33" departSpeed="0.00" departDelay="0.16" arrival="243.00" arrivalLane="48778508#1_1" arrivalPos="98.38" arrivalSpeed="14.68" duration="227.00" routeLength="2853.30" waitingTime="0.00" waitingCount="0" stopTime="0.00" timeLoss="39.05" rerouteNo="0" devices="tripinfo_veh22" vType="passenger" speedFactor="1.13" vaporized=""/>
    <tripinfo id="veh44" depart="32.00" departLane="-40304754#1_1" departPos="297.56" departSpeed="0.00" departDelay="0.32" arrival="244.00" arrivalLane="-40330557#0_1" arrivalPos="52.98" arrivalSpeed="13.27" duration="212.00" routeLength="2253.64" waitingTime="0.00" waitingCount="0" stopTime="0.00" timeLoss="43.67" rerouteNo="0" devices="tripinfo_veh44" vType="motorcycle" speedFactor="1.00" vaporized=""/>
    <tripinfo id="veh74" depart="54.00" departLane="-48778510#1_1" departPos="38.46" departSpeed="0.00" departDelay="0.72" arrival="244.00" arrivalLane="859735387#1_0" arrivalPos="30.39" arrivalSpeed="4.14" duration="190.00" routeLength="1500.04" waitingTime="17.00" waitingCount="2" stopTime="0.00" timeLoss="45.76" rerouteNo="0" devices="tripinfo_veh74" vType="passenger" speedFactor="0.86" vaporized=""/>
    <tripinfo id="veh214" depart="155.00" departLane="383582509_0" departPos="50.45" departSpeed="0.00" departDelay="0.92" arrival="247.00" arrivalLane="-43546789#0_1" arrivalPos="14.66" arrivalSpeed="10.90" duration="92.00" routeLength="1131.28" waitingTime="0.00" waitingCount="0" stopTime="0.00" timeLoss="12.23" rerouteNo="0" devices="tripinfo_veh214" vType="passenger" speedFactor="1.12" vaporized=""/>
    <tripinfo id="veh147" depart="106.00" departLane="250295383#3_1" departPos="8.98" departSpeed="0.00" departDelay="0.16" arrival="248.00" arrivalLane="859729931_0" arrivalPos="101.28" arrivalSpeed="4.58" duration="142.00" routeLength="1190.52" waitingTime="11.00" waitingCount="2" stopTime="0.00" timeLoss="34.52" rerouteNo="0" devices="tripinfo_veh147" vType="passenger" speedFactor="0.93" vaporized=""/>
    <tripinfo id="veh5" depart="4.00" departLane="647755347#1_1" departPos="8.66" departSpeed="0.00" departDelay="0.40" arrival="249.00" arrivalLane="-383582511#0_0" arrivalPos="95.20" arrivalSpeed="2.10" duration="245.00" routeLength="2084.70" waitingTime="2.00" waitingCount="2" stopTime="0.00" timeLoss="46.52" rerouteNo="0" devices="tripinfo_veh5" vType="passenger" speedFactor="0.94" vaporized=""/>
    <tripinfo id="veh36" depart="26.00" departLane="859732802#1_0" departPos="39.63" departSpeed="0.00" departDelay="0.08" arrival="249.00" arrivalLane="-223942064#0.371_0" arrivalPos="264.48" arrivalSpeed="12.90" duration="223.00" routeLength="2406.10" waitingTime="13.00" waitingCount="1" stopTime="0.00" timeLoss="36.69" rerouteNo="0" devices="tripinfo_veh36" vType="emergency" speedFactor="1.00" vaporized=""/>
    <personinfo id="ped43" depart="215.00" type="DEFAULT_PEDTYPE" speedFactor="1.03" duration="35.00" waitingTime="0.00" timeLoss="3.73" traveltime="35.00">
        <walk depart="215.00" departPos="0.00" arrival="250.00" arrivalPos="28.59" duration="35.00" routeLength="44.61" timeLoss="3.73" maxSpeed="1.43"/>
    </personinfo>
    <personinfo id="ped20" depart="100.00" type="DEFAULT_PEDTYPE" speedFactor="0.95" duration="153.00" waitingTime="0.00" timeLoss="16.04" traveltime="153.00">
        <walk depart="100.00" departPos="0.00" arrival="253.00" arrivalPos="20.89" duration="153.00" routeLength="180.56" timeLoss="16.04" maxSpeed="1.32"/>
    </personinfo>
    <tripinfo id="veh48" depart="35.00" departLane="945793486#0_0" departPos="0.54" departSpeed="0.00" departDelay="0.44" arrival="254.00" arrivalLane="-1136279385_1" arrivalPos="125.15" arrivalSpeed="8.30" duration="219.00" routeLength="1603.44" waitingTime="40.00" waitingCount="4" stopTime="0.00" timeLoss="88.15" rerouteNo="0" devices="tripinfo_veh48" vType="passenger" speedFactor="1.02" vaporized=""/>