<?xml version="1.0" encoding="UTF-8"?>

<!-- generated on 2025-06-15 22:04:04 by Eclipse SUMO sumo Version 1.22.0
<sumoConfiguration xmlns:xsi="http://www.w3.org/2001/XMLSchema-instance" xsi:noNamespaceSchemaLocation="http://sumo.dlr.de/xsd/sumoConfiguration.xsd">

    <input>
        <net-file value="E:/licenta/oras-mediu/2025-06-05-11-45-23\osm.net.xml"/>
        <route-files value="E:/licenta/oras-mediu/2025-06-05-11-45-23\full.rou.xml,E:/licenta/oras-mediu/2025-06-05-11-45-23\ ped.rou.xml,E:/licenta/oras-mediu/2025-06-05-11-45-23\ truck.rou.xml"/>
        <additional-files value="E:/licenta/oras-mediu/2025-06-05-11-45-23\osm.poly.xml,E:/licenta/oras-mediu/2025-06-05-11-45-23\ vtypes.xml"/>
    </input>

    <output>
        <summary-output value="E:/licenta/oras-mediu/2025-06-05-11-45-23\summary.xml"/>
        <tripinfo-output value="E:/licenta/oras-mediu/2025-06-05-11-45-23\tripinfo.xml"/>
    </output>

    <processing>
        <ignore-route-errors value="true"/>
        <tls.actuated.jam-threshold value="30"/>
    </processing>

    <routing>
        <device.rerouting.adaptation-steps value="18"/>
        <device.rerouting.adaptation-interval value="10"/>
    </routing>

    <report>
        <verbose value="true"/>
        <duration-log.statistics value="true"/>
        <no-step-log value="true"/>
    </report>

    <traci_server>
        <remote-port value="65464"/>
    </traci_server>

    <gui_only>
        <gui-settings-file value="E:/licenta/oras-mediu/2025-06-05-11-45-23\osm.view.xml"/>
    </gui_only>

</sumoConfiguration>
-->

<tripinfos xmlns:xsi="http://www.w3.org/2001/XMLSchema-instance" xsi:noNamespaceSchemaLocation="http://sumo.dlr.de/xsd/tripinfo_file.xsd">
    <tripinfo id="veh95" depart="45.00" departLane="1116111951_0" departPos="34.42" departSpeed="0.00" departDelay="0.35" arrival="53.00" arrivalLane="-649025399_0" arrivalPos="31.36" arrivalSpeed="12.03" duration="8.00" routeLength="52.32" waitingTime="0.00" waitingCount="0" stopTime="0.00" timeLoss="1.96" rerouteNo="0" devices="tripinfo_veh95" vType="motorcycle" speedFactor="0.98" vaporized=""/>
    <tripinfo id="veh31" depart="15.00" departLane="48778498#1_1" departPos="15.19" departSpeed="0.00" departDelay="0.43" arrival="60.00" arrivalLane="222609002#1_1" arrivalPos="24.71" arrivalSpeed="14.20" duration="45.00" routeLength="308.73" waitingTime="0.00" waitingCount="0" stopTime="0.00" timeLoss="9.82" rerouteNo="0" devices="tripinfo_veh31" vType="passenger" speedFactor="1.04" vaporized=""/>
    <tripinfo id="veh23" depart="11.00" departLane="43547017#2_1" departPos="54.54" departSpeed="0.00" departDelay="0.19" arrival="63.00" arrivalLane="48778431#5_1" arrivalPos="316.25" arrivalSpeed="13.46" duration="52.00" routeLength="554.24" waitingTime="0.00" waitingCount="0" stopTime="0.00" timeLoss="9.76" rerouteNo="0" devices="tripinfo_veh23" vType="passenger" speedFactor="0.99" vaporized=""/>
    <tripinfo id="veh0" depart="0.00" departLane="-48736640#1_1" departPos="59.62" departSpeed="0.00" departDelay="0.00" arrival="69.00" arrivalLane="-1135855912_1" arrivalPos="95.20" arrivalSpeed="12.43" duration="69.00" routeLength="683.44" waitingTime="0.00" waitingCount="0" stopTime="0.00" timeLoss="13.68" rerouteNo="0" devices="tripinfo_veh0" vType="motorcycle" speedFactor="0.98" vaporized=""/>
    <tripinfo id="veh22" depart="11.00" departLane="48798094#1_0" departPos="134.79" departSpeed="0.00" departDelay="0.66" arrival="74.00" arrivalLane="995052417_0" arrivalPos="89.90" arrivalSpeed="14.65" duration="63.00" routeLength="824.06" waitingTime="0.00" waitingCount="0" stopTime="0.00" timeLoss="8.54" rerouteNo="0" devices="tripinfo_veh22" vType="passenger" speedFactor="1.12" vaporized=""/>
    <personinfo id="ped8" depart="40.00" type="DEFAULT_PEDTYPE" speedFactor="0.96" duration="37.00" waitingTime="0.00" timeLoss="6.62" traveltime="37.00">
        <walk depart="40.00" departPos="0.00" arrival="77.00" arrivalPos="13.46" duration="37.00" routeLength="40.36" timeLoss="6.62" maxSpeed="1.33"/>
    </personinfo>
    <tripinfo id="veh78" depart="37.00" departLane="-43547017#5_1" departPos="4.57" departSpeed="0.00" departDelay="0.34" arrival="78.00" arrivalLane="43544001#15_1" arrivalPos="24.26" arrivalSpeed="8.09" duration="41.00" routeLength="432.61" waitingTime="0.00" waitingCount="0" stopTime="0.00" timeLoss="10.73" rerouteNo="0" devices="tripinfo_veh78" vType="passenger" speedFactor="1.06" vaporized=""/>
    <tripinfo id="veh16" depart="8.00" departLane="-48778472_1" departPos="19.65" departSpeed="0.00" departDelay="0.48" arrival="82.00" arrivalLane="40269009#0_1" arrivalPos="22.67" arrivalSpeed="13.66" duration="74.00" routeLength="739.72" waitingTime="0.00" waitingCount="0" stopTime="0.00" timeLoss="16.57" rerouteNo="0" devices="tripinfo_veh16" vType="passenger" speedFactor="1.01" vaporized=""/>
    <tripinfo id="veh88" depart="42.00" departLane="-48778512_1" departPos="33.86" departSpeed="0.00" departDelay="0.64" arrival="82.00" arrivalLane="1136289992_1" arrivalPos="17.60" arrivalSpeed="8.19" duration="40.00" routeLength="325.97" waitingTime="0.00" waitingCount="0" stopTime="0.00" timeLoss="11.40" rerouteNo="0" devices="tripinfo_veh88" vType="passenger" speedFactor="1.10" vaporized=""/>
    <tripinfo id="veh11" depart="6.00" departLane="-43546105#0_1" departPos="64.07" departSpeed="0.00" departDelay="0.83" arrival="86.00" arrivalLane="40236203#1_1" arrivalPos="32.69" arrivalSpeed="12.43" duration="80.00" routeLength="795.42" waitingTime="2.00" waitingCount="1" stopTime="0.00" timeLoss="18.44" rerouteNo="0" devices="tripinfo_veh11" vType="delivery" speedFactor="0.97" vaporized=""/>
    <tripinfo id="veh45" depart="22.00" departLane="-48797773_1" departPos="23.12" departSpeed="0.00" departDelay="0.85" arrival="94.00" arrivalLane="48736641_1" arrivalPos="16.88" arrivalSpeed="10.61" duration="72.00" routeLength="600.37" waitingTime="0.00" waitingCount="0" stopTime="0.00" timeLoss="16.87" rerouteNo="0" devices="tripinfo_veh45" vType="passenger" speedFactor="1.00" vaporized=""/>
    <tripinfo id="veh75" depart="36.00" departLane="48778498#1_1" departPos="2.60" departSpeed="0.00" departDelay="0.75" arrival="107.00" arrivalLane="-354259933#0_1" arrivalPos="10.70" arrivalSpeed="14.87" duration="71.00" routeLength="724.54" waitingTime="0.00" waitingCount="0" stopTime="0.00" timeLoss="18.23" rerouteNo="0" devices="tripinfo_veh75" vType="passenger" speedFactor="1.10" vaporized=""/>
    <tripinfo id="veh108" depart="51.00" departLane="-40330575#2_1" departPos="30.82" departSpeed="0.00" departDelay="0.24" arrival="114.00" arrivalLane="33909936#4_1" arrivalPos="15.05" arrivalSpeed="13.89" duration="63.00" routeLength="742.07" waitingTime="0.00" waitingCount="0" stopTime="0.00" timeLoss="8.89" rerouteNo="0" devices="tripinfo_veh108" vType="passenger" speedFactor="1.01" vaporized=""/>
    <tripinfo id="veh143" depart="68.00" departLane="-40299739#3_1" departPos="67.13" departSpeed="0.00" departDelay="0.79" arrival="117.00" arrivalLane="40299264#1_1" arrivalPos="139.82" arrivalSpeed="13.14" duration="49.00" routeLength="581.72" waitingTime="0.00" waitingCount="0" stopTime="0.00" timeLoss="7.03" rerouteNo="0" devices="tripinfo_veh143" vType="passenger" speedFactor="1.03" vaporized=""/>
    <tripinfo id="veh67" depart="32.00" departLane="-48778446#0_1" departPos="6.51" departSpeed="0.00" departDelay="0.51" arrival="118.00" arrivalLane="43546449#2_1" arrivalPos="49.88" arrivalSpeed="11.72" duration="86.00" routeLength="820.04" waitingTime="4.00" waitingCount="1" stopTime="0.00" timeLoss="19.96" rerouteNo="0" devices="tripinfo_veh67" vType="motorcycle" speedFactor="0.94" vaporized=""/>
    <tripinfo id="veh68" depart="32.00" departLane="48778475#1_1" departPos="2.54" departSpeed="0.00" departDelay="0.04" arrival="126.00" arrivalLane="945793485#0_1" arrivalPos="25.00" arrivalSpeed="11.45" duration="94.00" routeLength="820.51" waitingTime="0.00" waitingCount="0" stopTime="0.00" timeLoss="17.04" rerouteNo="0" devices="tripinfo_veh68" vType="passenger" speedFactor="0.83" vaporized=""/>
    <tripinfo id="veh136" depart="64.00" departLane="40330557#4_1" departPos="3.87" departSpeed="0.00" departDelay="0.08" arrival="135.00" arrivalLane="-945794110_1" arrivalPos="52.39" arrivalSpeed="8.66" duration="71.00" routeLength="693.53" waitingTime="0.00" waitingCount="0" stopTime="0.00" timeLoss="17.47" rerouteNo="0" devices="tripinfo_veh136" vType="passenger" speedFactor="1.06" vaporized=""/>
    <tripinfo id="veh12" depart="6.00" departLane="48736618_1" departPos="31.18" departSpeed="0.00" departDelay="0.36" arrival="137.00" arrivalLane="-48736610#3_1" arrivalPos="39.72" arrivalSpeed="13.24" duration="131.00" routeLength="433.86" waitingTime="87.00" waitingCount="1" stopTime="0.00" timeLoss="98.41" rerouteNo="0" devices="tripinfo_veh12" vType="emergency" speedFactor="1.00" vaporized=""/>
    <tripinfo id="veh10" depart="5.00" departLane="E23_2" departPos="65.20" departSpeed="0.00" departDelay="0.30" arrival="143.00" arrivalLane="-258551297#1_0" arrivalPos="131.29" arrivalSpeed="5.16" duration="138.00" routeLength="1284.14" waitingTime="8.00" waitingCount="1" stopTime="0.00" timeLoss="31.28" rerouteNo="0" devices="tripinfo_veh10" vType="passenger" speedFactor="1.04" vaporized=""/>
    <tripinfo id="veh207" depart="98.00" departLane="-48736612#2_1" departPos="0.41" departSpeed="0.00" departDelay="0.71" arrival="143.00" arrivalLane="-48736610#0_1" arrivalPos="66.60" arrivalSpeed="14.82" duration="45.00" routeLength="462.30" waitingTime="0.00" waitingCount="0" stopTime="0.00" timeLoss="12.93" rerouteNo="0" devices="tripinfo_veh207" vType="passenger" speedFactor="1.13" vaporized=""/>
    <tripinfo id="veh273" depart="129.00" departLane="-48736612#5_1" departPos="4.53" departSpeed="0.00" departDelay="0.69" arrival="150.00" arrivalLane="-48736612#1_1" arrivalPos="56.12" arrivalSpeed="12.80" duration="21.00" routeLength="223.92" waitingTime="0.00" waitingCount="0" stopTime="0.00" timeLoss="3.66" rerouteNo="0" devices="tripinfo_veh273" vType="passenger" speedFactor="0.98" vaporized=""/>
    <tripinfo id="veh151" depart="71.00" departLane="250295381_1" departPos="30.52" departSpeed="0.00" departDelay="0.03" arrival="153.00" arrivalLane="43573573#3_1" arrivalPos="71.51" arrivalSpeed="14.42" duration="82.00" routeLength="904.78" waitingTime="0.00" waitingCount="0" stopTime="0.00" timeLoss="18.06" rerouteNo="0" devices="tripinfo_veh151" vType="passenger" speedFactor="1.07" vaporized=""/>
    <tripinfo id="veh19" depart="9.00" departLane="92198452#0_1" departPos="17.94" departSpeed="0.00" departDelay="0.07" arrival="154.00" arrivalLane="222605089#2_1" arrivalPos="24.42" arrivalSpeed="15.13" duration="145.00" routeLength="1972.42" waitingTime="0.00" waitingCount="0" stopTime="0.00" timeLoss="18.07" rerouteNo="0" devices="tripinfo_veh19" vType="passenger" speedFactor="1.13" vaporized=""/>
    <tripinfo id="veh25" depart="12.00" departLane="33913538#9_1" departPos="7.91" departSpeed="0.00" departDelay="0.25" arrival="156.00" arrivalLane="-1250915722#2_1" arrivalPos="3.43" arrivalSpeed="4.77" duration="144.00" routeLength="1232.50" waitingTime="3.00" waitingCount="1" stopTime="0.00" timeLoss="31.65" rerouteNo="0" devices="tripinfo_veh25" vType="motorcycle" speedFactor="1.02" vaporized=""/>
    <personinfo id="ped9" depart="45.00" type="DEFAULT_PEDTYPE" speedFactor="1.07" duration="112.00" waitingTime="0.00" timeLoss="13.21" traveltime="112.00">
        <walk depart="45.00" departPos="0.00" arrival="157.00" arrivalPos="27.13" duration="112.00" routeLength="146.44" timeLoss="13.21" maxSpeed="1.48"/>
    </personinfo>
    <tripinfo id="veh227" depart="107.00" departLane="E17_1" departPos="36.69" departSpeed="0.00" departDelay="0.31" arrival="159.00" arrivalLane="-48778501_1" arrivalPos="136.18" arrivalSpeed="13.96" duration="52.00" routeLength="531.77" waitingTime="0.00" waitingCount="0" stopTime="0.00" timeLoss="11.76" rerouteNo="0" devices="tripinfo_veh227" vType="passenger" speedFactor="1.03" vaporized=""/>
    <tripinfo id="veh97" depart="46.00" departLane="-48778441#3_1" departPos="93.65" departSpeed="0.00" departDelay="0.41" arrival="161.00" arrivalLane="48736665_1" arrivalPos="14.66" arrivalSpeed="9.72" duration="115.00" routeLength="1241.47" waitingTime="0.00" waitingCount="0" stopTime="0.00" timeLoss="24.61" rerouteNo="0" devices="tripinfo_veh97" vType="passenger" speedFactor="1.03" vaporized=""/>
    <tripinfo id="veh103" depart="49.00" departLane="-48736666#1_1" departPos="0.06" departSpeed="0.00" departDelay="0.59" arrival="163.00" arrivalLane="-647755347#1_1" arrivalPos="36.40" arrivalSpeed="12.37" duration="114.00" routeLength="1277.85" waitingTime="1.00" waitingCount="1" stopTime="0.00" timeLoss="28.44" rerouteNo="0" devices="tripinfo_veh103" vType="motorcycle" speedFactor="1.10" vaporized=""/>
    <tripinfo id="veh155" depart="73.00" departLane="-40330575#2_1" departPos="3.94" departSpeed="0.00" departDelay="0.15" arrival="163.00" arrivalLane="-578560104#3_1" arrivalPos="122.64" arrivalSpeed="5.13" duration="90.00" routeLength="860.75" waitingTime="13.00" waitingCount="2" stopTime="0.00" timeLoss="34.30" rerouteNo="0" devices="tripinfo_veh155" vType="passenger" speedFactor="1.15" vaporized=""/>
    <tripinfo id="veh197" depart="93.00" departLane="-250295383#1_1" departPos="50.85" departSpeed="0.00" departDelay="0.41" arrival="165.00" arrivalLane="-984521612#1_0" arrivalPos="29.21" arrivalSpeed="5.55" duration="72.00" routeLength="639.21" waitingTime="0.00" waitingCount="0" stopTime="0.00" timeLoss="14.24" rerouteNo="0" devices="tripinfo_veh197" vType="motorcycle" speedFactor="1.04" vaporized=""/>
    <tripinfo id="veh32" depart="16.00" departLane="-43544001#11_1" departPos="45.89" departSpeed="0.00" departDelay="0.96" arrival="167.00" arrivalLane="48778504_1" arrivalPos="191.60" arrivalSpeed="13.85" duration="151.00" routeLength="1563.34" waitingTime="2.00" waitingCount="1" stopTime="0.00" timeLoss="32.78" rerouteNo="0" devices="tripinfo_veh32" vType="emergency" speedFactor="1.00" vaporized=""/>
    <tripinfo id="veh40" depart="19.00" departLane="945794111_1" departPos="20.68" departSpeed="0.00" departDelay="0.20" arrival="167.00" arrivalLane="1250915722#4_1" arrivalPos="56.95" arrivalSpeed="4.59" duration="148.00" routeLength="1085.51" waitingTime="0.00" waitingCount="0" stopTime="0.00" timeLoss="33.34" rerouteNo="0" devices="tripinfo_veh40" vType="motorcycle" speedFactor="1.00" vaporized=""/>
    <tripinfo id="veh232" depart="110.00" departLane="1232511776#1_1" departPos="13.61" departSpeed="0.00" departDelay="0.96" arrival="170.00" arrivalLane="48778527_1" arrivalPos="56.14" arrivalSpeed="15.23" duration="60.00" routeLength="660.48" waitingTime="0.00" waitingCount="0" stopTime="0.00" timeLoss="15.15" rerouteNo="0" devices="tripinfo_veh232" vType="passenger" speedFactor="1.14" vaporized=""/>
    <tripinfo id="veh142" depart="67.00" departLane="-945793490#4_1" departPos="42.74" departSpeed="0.00" departDelay="0.26" arrival="171.00" arrivalLane="48778496_1" arrivalPos="81.85" arrivalSpeed="5.73" duration="104.00" routeLength="569.26" waitingTime="7.00" waitingCount="2" stopTime="0.00" timeLoss="32.78" rerouteNo="0" devices="tripinfo_veh142" vType="motorcycle" speedFactor="0.97" vaporized=""/>
    <tripinfo id="veh193" depart="91.00" departLane="-984505045_0" departPos="42.85" departSpeed="0.00" departDelay="0.29" arrival="172.00" arrivalLane="48778498#2_1" arrivalPos="98.03" arrivalSpeed="13.44" duration="81.00" routeLength="766.28" waitingTime="1.00" waitingCount="1" stopTime="0.00" timeLoss="20.32" rerouteNo="0" devices="tripinfo_veh193" vType="delivery" speedFactor="1.01" vaporized=""/>
    <tripinfo id="veh49" depart="24.00" departLane="43546460#10_1" departPos="7.86" departSpeed="0.00" departDelay="0.97" arrival="173.00" arrivalLane="40305706#2_1" arrivalPos="52.63" arrivalSpeed="12.79" duration="149.00" routeLength="1637.16" waitingTime="6.00" waitingCount="1" stopTime="0.00" timeLoss="26.17" rerouteNo="0" devices="tripinfo_veh49" vType="delivery" speedFactor="0.99" vaporized=""/>
    <tripinfo id="veh121" depart="57.00" departLane="43547017#1_1" departPos="18.12" departSpeed="0.00" departDelay="0.13" arrival="174.00" arrivalLane="-43573547#5_1" arrivalPos="56.54" arrivalSpeed="14.32" duration="117.00" routeLength="1458.24" waitingTime="0.00" waitingCount="0" stopTime="0.00" timeLoss="16.96" rerouteNo="0" devices="tripinfo_veh121" vType="passenger" speedFactor="1.07" vaporized=""/>
    <tripinfo id="veh131" depart="62.00" departLane="222605087#1_1" departPos="1.91" departSpeed="0.00" departDelay="0.43" arrival="177.00" arrivalLane="354259928_1" arrivalPos="68.18" arrivalSpeed="12.34" duration="115.00" routeLength="772.35" waitingTime="0.00" waitingCount="0" stopTime="0.00" timeLoss="24.14" rerouteNo="0" devices="tripinfo_veh131" vType="motorcycle" speedFactor="0.91" vaporized=""/>
    <tripinfo id="veh7" depart="4.00" departLane="-48778478#2_1" departPos="16.99" departSpeed="0.00" departDelay="0.71" arrival="178.00" arrivalLane="223942064#2_0" arrivalPos="10.18" arrivalSpeed="10.64" duration="174.00" routeLength="2146.82" waitingTime="0.00" waitingCount="0" stopTime="0.00" timeLoss="29.54" rerouteNo="0" devices="tripinfo_veh7" vType="passenger" speedFactor="1.12" vaporized=""/>
    <tripinfo id="veh63" depart="30.00" departLane="43546648#0_1" departPos="98.72" departSpeed="0.00" departDelay="0.39" arrival="182.00" arrivalLane="992542691_0" arrivalPos="24.23" arrivalSpeed="4.51" duration="152.00" routeLength="1612.82" waitingTime="0.00" waitingCount="0" stopTime="0.00" timeLoss="24.72" rerouteNo="0" devices="tripinfo_veh63" vType="passenger" speedFactor="0.98" vaporized=""/>
    <tripinfo id="veh80" depart="38.00" departLane="354250407#1_2" departPos="0.81" departSpeed="0.00" departDelay="0.40" arrival="183.00" arrivalLane="48778489#0_1" arrivalPos="265.37" arrivalSpeed="3.18" duration="145.00" routeLength="1553.26" waitingTime="18.00" waitingCount="1" stopTime="0.00" timeLoss="40.20" rerouteNo="0" devices="tripinfo_veh80" vType="passenger" speedFactor="1.08" vaporized=""/>
    <tripinfo id="veh221" depart="104.00" departLane="-40330592_1" departPos="55.31" departSpeed="0.00" departDelay="0.13" arrival="190.00" arrivalLane="578560104#2_1" arrivalPos="122.59" arrivalSpeed="12.75" duration="86.00" routeLength="772.30" waitingTime="5.00" waitingCount="1" stopTime="0.00" timeLoss="22.37" rerouteNo="0" devices="tripinfo_veh221" vType="passenger" speedFactor="0.95" vaporized=""/>
    <tripinfo id="veh201" depart="95.00" departLane="48778481#4_2" departPos="189.32" departSpeed="0.00" departDelay="0.53" arrival="191.00" arrivalLane="-258551297#1_0" arrivalPos="131.29" arrivalSpeed="5.00" duration="96.00" routeLength="832.47" waitingTime="0.00" waitingCount="0" stopTime="0.00" timeLoss="17.67" rerouteNo="0" devices="tripinfo_veh201" vType="passenger" speedFactor="0.98" vaporized=""/>
    <tripinfo id="veh3" depart="2.00" departLane="40330583#0_0" departPos="4.01" departSpeed="0.00" departDelay="0.59" arrival="192.00" arrivalLane="-43544001#10_1" arrivalPos="37.96" arrivalSpeed="12.40" duration="190.00" routeLength="2346.89" waitingTime="0.00" waitingCount="0" stopTime="0.00" timeLoss="19.18" rerouteNo="0" devices="tripinfo_veh3" vType="passenger" speedFactor="0.94" vaporized=""/>
    <tripinfo id="veh38" depart="18.00" departLane="-48736666#2_1" departPos="19.76" departSpeed="0.00" departDelay="0.14" arrival="193.00" arrivalLane="143207982#2_1" arrivalPos="8.52" arrivalSpeed="16.21" duration="175.00" routeLength="1085.86" waitingTime="73.00" waitingCount="3" stopTime="0.00" timeLoss="105.07" rerouteNo="0" devices="tripinfo_veh38" vType="passenger" speedFactor="1.17" vaporized=""/>
    <tripinfo id="veh274" depart="129.00" departLane="-994066252#0_0" departPos="3.12" departSpeed="0.00" departDelay="0.22" arrival="196.00" arrivalLane="647610982#0_1" arrivalPos="197.95" arrivalSpeed="16.23" duration="67.00" routeLength="511.34" waitingTime="2.00" waitingCount="1" stopTime="0.00" timeLoss="34.48" rerouteNo="0" devices="tripinfo_veh274" vType="passenger" speedFactor="1.26" vaporized=""/>
    <tripinfo id="veh130" depart="62.00" departLane="-48797770_1" departPos="17.42" departSpeed="0.00" departDelay="0.90" arrival="197.00" arrivalLane="354252039#0_1" arrivalPos="50.46" arrivalSpeed="12.25" duration="135.00" routeLength="1362.38" waitingTime="8.00" waitingCount="2" stopTime="0.00" timeLoss="30.19" rerouteNo="0" devices="tripinfo_veh130" vType="passenger" speedFactor="0.97" vaporized=""/>
    <tripinfo id="veh271" depart="128.00" departLane="43544001#2_1" departPos="17.50" departSpeed="0.00" departDelay="0.63" arrival="197.00" arrivalLane="-383582512#1_0" arrivalPos="18.95" arrivalSpeed="4.60" duration="69.00" routeLength="821.34" waitingTime="0.00" waitingCount="0" stopTime="0.00" timeLoss="6.44" rerouteNo="0" devices="tripinfo_veh271" vType="passenger" speedFactor="1.00" vaporized=""/>
    <tripinfo id="veh139" depart="66.00" departLane="48778498#2_1" departPos="2.38" departSpeed="0.00" departDelay="0.67" arrival="198.00" arrivalLane="859732802#1_0" arrivalPos="140.93" arrivalSpeed="5.80" duration="132.00" routeLength="653.29" waitingTime="7.00" waitingCount="2" stopTime="0.00" timeLoss="23.52" rerouteNo="0" devices="tripinfo_veh139" vType="bicycle" speedFactor="1.09" vaporized=""/>
    <tripinfo id="veh235" depart="111.00" departLane="-996489799#1_0" departPos="45.63" departSpeed="0.00" departDelay="0.55" arrival="202.00" arrivalLane="-250295380#1_1" arrivalPos="92.88" arrivalSpeed="7.44" duration="91.00" routeLength="937.90" waitingTime="0.00" waitingCount="0" stopTime="0.00" timeLoss="16.40" rerouteNo="0" devices="tripinfo_veh235" vType="passenger" speedFactor="0.98" vaporized=""/>
    <tripinfo id="veh179" depart="85.00" departLane="1135855898_0" departPos="27.89" departSpeed="0.00" departDelay="0.87" arrival="204.00" arrivalLane="43573547#5_1" arrivalPos="56.54" arrivalSpeed="13.93" duration="119.00" routeLength="1374.38" waitingTime="0.00" waitingCount="0" stopTime="0.00" timeLoss="20.87" rerouteNo="0" devices="tripinfo_veh179" vType="passenger" speedFactor="1.06" vaporized=""/>
    <tripinfo id="veh263" depart="124.00" departLane="-43546449#2_1" departPos="19.44" departSpeed="0.00" departDelay="0.39" arrival="208.00" arrivalLane="-1135772296#1_0" arrivalPos="28.75" arrivalSpeed="4.55" duration="84.00" routeLength="630.44" waitingTime="9.00" waitingCount="1" stopTime="0.00" timeLoss="28.42" rerouteNo="0" devices="tripinfo_veh263" vType="passenger" speedFactor="0.96" vaporized=""/>
    <tripinfo id="veh259" depart="122.00" departLane="43547017#5_1" departPos="0.21" departSpeed="0.00" departDelay="0.27" arrival="209.00" arrivalLane="-43544138#4_1" arrivalPos="45.15" arrivalSpeed="12.28" duration="87.00" routeLength="839.67" waitingTime="0.00" waitingCount="0" stopTime="0.00" timeLoss="17.44" rerouteNo="0" devices="tripinfo_veh259" vType="passenger" speedFactor="0.94" vaporized=""/>
    <tripinfo id="veh275" depart="130.00" departLane="43546092_1" departPos="66.55" departSpeed="0.00" departDelay="0.75" arrival="209.00" arrivalLane="-43544138#2_1" arrivalPos="0.25" arrivalSpeed="10.72" duration="79.00" routeLength="689.10" waitingTime="0.00" waitingCount="0" stopTime="0.00" timeLoss="13.89" rerouteNo="0" devices="tripinfo_veh275" vType="passenger" speedFactor="0.82" vaporized=""/>
    <tripinfo id="veh115" depart="55.00" departLane="43546789#0_1" departPos="7.64" departSpeed="0.00" departDelay="0.95" arrival="210.00" arrivalLane="-33909936#2_1" arrivalPos="60.97" arrivalSpeed="16.33" duration="155.00" routeLength="1543.04" waitingTime="21.00" waitingCount="2" stopTime="0.00" timeLoss="59.69" rerouteNo="0" devices="tripinfo_veh115" vType="passenger" speedFactor="1.21" vaporized=""/>
    <tripinfo id="veh71" depart="34.00" departLane="-48797774_1" departPos="8.42" departSpeed="0.00" departDelay="0.63" arrival="211.00" arrivalLane="40236153#0_1" arrivalPos="49.85" arrivalSpeed="11.05" duration="177.00" routeLength="1728.61" waitingTime="3.00" waitingCount="1" stopTime="0.00" timeLoss="27.96" rerouteNo="0" devices="tripinfo_veh71" vType="passenger" speedFactor="0.86" vaporized=""/>
    <tripinfo id="veh240" depart="113.00" departLane="1135855898_0" departPos="1.51" departSpeed="0.00" departDelay="0.20" arrival="211.00" arrivalLane="40236203#1_1" arrivalPos="32.69" arrivalSpeed="10.90" duration="98.00" routeLength="499.49" waitingTime="8.00" waitingCount="1" stopTime="0.00" timeLoss="50.65" rerouteNo="0" devices="tripinfo_veh240" vType="motorcycle" speedFactor="0.98" vaporized=""/>
    <tripinfo id="veh13" depart="7.00" departLane="43547017#0_1" departPos="27.48" departSpeed="0.00" departDelay="0.89" arrival="213.00" arrivalLane="-43546460#1_1" arrivalPos="137.05" arrivalSpeed="13.89" duration="206.00" routeLength="2611.46" waitingTime="0.00" waitingCount="0" stopTime="0.00" timeLoss="19.95" rerouteNo="0" devices="tripinfo_veh13" vType="passenger" speedFactor="1.02" vaporized=""/>
    <tripinfo id="veh36" depart="17.00" departLane="40236203#2_1" departPos="6.22" departSpeed="0.00" departDelay="0.08" arrival="214.00" arrivalLane="-48778520_1" arrivalPos="53.92" arrivalSpeed="11.11" duration="197.00" routeLength="2065.18" waitingTime="0.00" waitingCount="0" stopTime="0.00" timeLoss="22.87" rerouteNo="0" devices="tripinfo_veh36" vType="passenger" speedFactor="0.88" vaporized=""/>
    <tripinfo id="veh128" depart="61.00" departLane="-43544001#0_1" departPos="4.40" departSpeed="0.00" departDelay="0.84" arrival="215.00" arrivalLane="-43546053#0_1" arrivalPos="315.83" arrivalSpeed="10.86" duration="154.00" routeLength="1442.55" waitingTime="0.00" waitingCount="0" stopTime="0.00" timeLoss="19.15" rerouteNo="0" devices="tripinfo_veh128" vType="passenger" speedFactor="0.80" vaporized=""/>
    <tripinfo id="veh181" depart="86.00" departLane="1135772296#0_0" departPos="4.43" departSpeed="0.00" departDelay="0.93" arrival="217.00" arrivalLane="48797766#1_1" arrivalPos="31.54" arrivalSpeed="12.67" duration="131.00" routeLength="971.49" waitingTime="29.00" waitingCount="1" stopTime="0.00" timeLoss="59.80" rerouteNo="0" devices="tripinfo_veh181" vType="passenger" speedFactor="1.11" vaporized=""/>
    <tripinfo id="veh156" depart="74.00" departLane="43546343#2_1" departPos="10.67" departSpeed="0.00" departDelay="0.68" arrival="222.00" arrivalLane="647610982#2_1" arrivalPos="11.90" arrivalSpeed="12.54" duration="148.00" routeLength="1134.22" waitingTime="33.00" waitingCount="2" stopTime="0.00" timeLoss="59.12" rerouteNo="0" devices="tripinfo_veh156" vType="delivery" speedFactor="0.94" vaporized=""/>
    <tripinfo id="veh206" depart="97.00" departLane="-251916699#0_1" departPos="24.71" departSpeed="0.00" departDelay="0.18" arrival="222.00" arrivalLane="-48736638#2_1" arrivalPos="32.61" arrivalSpeed="12.66" duration="125.00" routeLength="1612.00" waitingTime="0.00" waitingCount="0" stopTime="0.00" timeLoss="17.75" rerouteNo="0" devices="tripinfo_veh206" vType="passenger" speedFactor="1.12" vaporized=""/>
    <tripinfo id="veh27" depart="13.00" departLane="-1136289988_1" departPos="10.53" departSpeed="0.00" departDelay="0.31" arrival="223.00" arrivalLane="-353939570#4_1" arrivalPos="276.20" arrivalSpeed="15.10" duration="210.00" routeLength="1989.67" waitingTime="59.00" waitingCount="1" stopTime="0.00" timeLoss="77.92" rerouteNo="0" devices="tripinfo_veh27" vType="passenger" speedFactor="1.10" vaporized=""/>
    <tripinfo id="veh93" depart="44.00" departLane="48736638#0_1" departPos="39.50" departSpeed="0.00" departDelay="0.29" arrival="223.00" arrivalLane="43573547#5_1" arrivalPos="56.54" arrivalSpeed="15.17" duration="179.00" routeLength="2324.29" waitingTime="0.00" waitingCount="0" stopTime="0.00" timeLoss="27.81" rerouteNo="0" devices="tripinfo_veh93" vType="passenger" speedFactor="1.13" vaporized=""/>
    <tripinfo id="veh87" depart="41.00" departLane="48778525#0_1" departPos="2.42" departSpeed="0.00" departDelay="0.11" arrival="224.00" arrivalLane="-222605089#1_1" arrivalPos="62.73" arrivalSpeed="13.57" duration="183.00" routeLength="1432.53" waitingTime="45.00" waitingCount="1" stopTime="0.00" timeLoss="75.30" rerouteNo="0" devices="tripinfo_veh87" vType="delivery" speedFactor="1.01" vaporized=""/>
    <personinfo id="ped25" depart="125.00" type="DEFAULT_PEDTYPE" speedFactor="0.83" duration="101.00" waitingTime="0.00" timeLoss="10.63" traveltime="101.00">
        <walk depart="125.00" departPos="0.00" arrival="226.00" arrivalPos="29.03" duration="101.00" routeLength="103.60" timeLoss="10.63" maxSpeed="1.15"/>
    </personinfo>
    <tripinfo id="veh172" depart="81.00" departLane="40305706#0_1" departPos="12.76" departSpeed="0.00" departDelay="0.16" arrival="226.00" arrivalLane="43573573#2_1" arrivalPos="202.87" arrivalSpeed="13.19" duration="145.00" routeLength="1437.68" waitingTime="8.00" waitingCount="1" stopTime="0.00" timeLoss="33.93" rerouteNo="0" devices="tripinfo_veh172" vType="passenger" speedFactor="0.96" vaporized=""/>
    <personinfo id="ped2" depart="10.00" type="DEFAULT_PEDTYPE" speedFactor="0.94" duration="218.00" waitingTime="0.00" timeLoss="21.96" traveltime="218.00">
        <walk depart="10.00" departPos="0.00" arrival="228.00" arrivalPos="45.35" duration="218.00" routeLength="257.22" timeLoss="21.96" maxSpeed="1.31"/>
    </personinfo>
    <tripinfo id="veh81" depart="39.00" departLane="-671642321_1" departPos="24.61" departSpeed="0.00" departDelay="0.93" arrival="231.00" arrivalLane="48778512_1" arrivalPos="67.72" arrivalSpeed="7.79" duration="192.00" routeLength="2116.68" waitingTime="0.00" waitingCount="0" stopTime="0.00" timeLoss="30.63" rerouteNo="0" devices="tripinfo_veh81" vType="passenger" speedFactor="1.03" vaporized=""/>