<?xml version="1.0" encoding="UTF-8"?>

<!-- generated on 2025-06-15 22:19:29 by Eclipse SUMO sumo Version 1.22.0
<sumoConfiguration xmlns:xsi="http://www.w3.org/2001/XMLSchema-instance" xsi:noNamespaceSchemaLocation="http://sumo.dlr.de/xsd/sumoConfiguration.xsd">

    <input>
        <net-file value="E:/licenta/oras-mediu/2025-06-05-11-45-23\osm.net.xml"/>
        <route-files value="E:/licenta/oras-mediu/2025-06-05-11-45-23\full.rou.xml,E:/licenta/oras-mediu/2025-06-05-11-45-23\ ped.rou.xml,E:/licenta/oras-mediu/2025-06-05-11-45-23\ truck.rou.xml"/>
        <additional-files value="E:/licenta/oras-mediu/2025-06-05-11-45-23\osm.poly.xml,E:/licenta/oras-mediu/2025-06-05-11-45-23\ vtypes.xml"/>
    </input>

    <output>
        <summary-output value="E:/licenta/oras-mediu/2025-06-05-11-45-23\summary.xml"/>
        <tripinfo-output value="E:/licenta/oras-mediu/2025-06-05-11-45-23\tripinfo.xml"/>
    </output>

    <processing>
        <ignore-route-errors value="true"/>
        <tls.actuated.jam-threshold value="30"/>
    </processing>

    <routing>
        <device.rerouting.adaptation-steps value="18"/>
        <device.rerouting.adaptation-interval value="10"/>
    </routing>

    <report>
        <verbose value="true"/>
        <duration-log.statistics value="true"/>
        <no-step-log value="true"/>
    </report>

    <traci_server>
        <remote-port value="50029"/>
    </traci_server>

    <gui_only>
        <gui-settings-file value="E:/licenta/oras-mediu/2025-06-05-11-45-23\osm.view.xml"/>
    </gui_only>

</sumoConfiguration>
-->

<tripinfos xmlns:xsi="http://www.w3.org/2001/XMLSchema-instance" xsi:noNamespaceSchemaLocation="http://sumo.dlr.de/xsd/tripinfo_file.xsd">
    <tripinfo id="veh27" depart="16.00" departLane="-48778461#1_1" departPos="22.76" departSpeed="0.00" departDelay="0.61" arrival="63.00" arrivalLane="1136301814#1_1" arrivalPos="37.74" arrivalSpeed="11.80" duration="47.00" routeLength="457.13" waitingTime="0.00" waitingCount="0" stopTime="0.00" timeLoss="10.42" rerouteNo="0" devices="tripinfo_veh27" vType="motorcycle" speedFactor="1.02" vaporized=""/>
    <tripinfo id="veh26" depart="15.00" departLane="-48778494#1_1" departPos="15.29" departSpeed="0.00" departDelay="0.18" arrival="69.00" arrivalLane="-92198452#1_1" arrivalPos="116.26" arrivalSpeed="13.37" duration="54.00" routeLength="589.80" waitingTime="0.00" waitingCount="0" stopTime="0.00" timeLoss="8.68" rerouteNo="0" devices="tripinfo_veh26" vType="passenger" speedFactor="0.97" vaporized=""/>
    <tripinfo id="veh107" depart="61.00" departLane="-40266620_1" departPos="7.74" departSpeed="0.00" departDelay="0.01" arrival="90.00" arrivalLane="354252039#1_1" arrivalPos="19.16" arrivalSpeed="13.22" duration="29.00" routeLength="335.71" waitingTime="0.00" waitingCount="0" stopTime="0.00" timeLoss="4.77" rerouteNo="0" devices="tripinfo_veh107" vType="motorcycle" speedFactor="1.04" vaporized=""/>
    <tripinfo id="veh119" depart="68.00" departLane="43547579#0_1" departPos="165.97" departSpeed="0.00" departDelay="0.17" arrival="100.00" arrivalLane="48736639#1_1" arrivalPos="23.89" arrivalSpeed="14.32" duration="32.00" routeLength="353.38" waitingTime="0.00" waitingCount="0" stopTime="0.00" timeLoss="5.98" rerouteNo="0" devices="tripinfo_veh119" vType="motorcycle" speedFactor="1.04" vaporized=""/>
    <tripinfo id="veh116" depart="67.00" departLane="383582493_1" departPos="17.19" departSpeed="0.00" departDelay="0.88" arrival="129.00" arrivalLane="-353939574_0" arrivalPos="189.91" arrivalSpeed="6.17" duration="62.00" routeLength="445.41" waitingTime="0.00" waitingCount="0" stopTime="0.00" timeLoss="8.08" rerouteNo="0" devices="tripinfo_veh116" vType="passenger" speedFactor="1.21" vaporized=""/>
    <tripinfo id="veh22" depart="13.00" departLane="1136301812#0_1" departPos="6.19" departSpeed="0.00" departDelay="0.46" arrival="135.00" arrivalLane="-48778441#2_1" arrivalPos="16.22" arrivalSpeed="11.66" duration="122.00" routeLength="1136.83" waitingTime="0.00" waitingCount="0" stopTime="0.00" timeLoss="24.77" rerouteNo="0" devices="tripinfo_veh22" vType="passenger" speedFactor="0.89" vaporized=""/>
    <tripinfo id="veh12" depart="7.00" departLane="-33909936#3_1" departPos="1.17" departSpeed="0.00" departDelay="0.16" arrival="137.00" arrivalLane="945793490#0_1" arrivalPos="50.84" arrivalSpeed="4.50" duration="130.00" routeLength="1123.10" waitingTime="0.00" waitingCount="0" stopTime="0.00" timeLoss="15.90" rerouteNo="0" devices="tripinfo_veh12" vType="delivery" speedFactor="0.97" vaporized=""/>
    <tripinfo id="veh20" depart="12.00" departLane="43547296#1_1" departPos="1.77" departSpeed="0.00" departDelay="0.60" arrival="140.00" arrivalLane="-1205541344_0" arrivalPos="82.96" arrivalSpeed="5.10" duration="128.00" routeLength="1379.12" waitingTime="0.00" waitingCount="0" stopTime="0.00" timeLoss="18.46" rerouteNo="0" devices="tripinfo_veh20" vType="passenger" speedFactor="1.03" vaporized=""/>
    <tripinfo id="veh29" depart="17.00" departLane="48778464#0_1" departPos="13.11" departSpeed="0.00" departDelay="0.47" arrival="141.00" arrivalLane="859732801#1_1" arrivalPos="25.05" arrivalSpeed="14.12" duration="124.00" routeLength="1262.95" waitingTime="0.00" waitingCount="0" stopTime="0.00" timeLoss="34.41" rerouteNo="0" devices="tripinfo_veh29" vType="passenger" speedFactor="1.10" vaporized=""/>
    <tripinfo id="veh49" depart="28.00" departLane="1250915720#0_1" departPos="1.72" departSpeed="0.00" departDelay="0.07" arrival="141.00" arrivalLane="-1158942155_1" arrivalPos="54.46" arrivalSpeed="5.03" duration="113.00" routeLength="570.00" waitingTime="0.00" waitingCount="0" stopTime="0.00" timeLoss="9.39" rerouteNo="0" devices="tripinfo_veh49" vType="bicycle" speedFactor="1.00" vaporized=""/>
    <tripinfo id="veh0" depart="0.00" departLane="-258551321_1" departPos="119.20" departSpeed="0.00" departDelay="0.00" arrival="146.00" arrivalLane="-40330575#4_1" arrivalPos="66.51" arrivalSpeed="10.95" duration="146.00" routeLength="1274.08" waitingTime="22.00" waitingCount="1" stopTime="0.00" timeLoss="47.27" rerouteNo="0" devices="tripinfo_veh0" vType="motorcycle" speedFactor="0.98" vaporized=""/>
    <tripinfo id="veh125" depart="72.00" departLane="43546688#1_1" departPos="34.35" departSpeed="0.00" departDelay="0.75" arrival="147.00" arrivalLane="48736645_1" arrivalPos="132.12" arrivalSpeed="12.00" duration="75.00" routeLength="688.84" waitingTime="0.00" waitingCount="0" stopTime="0.00" timeLoss="16.21" rerouteNo="0" devices="tripinfo_veh125" vType="passenger" speedFactor="0.91" vaporized=""/>
    <tripinfo id="veh67" depart="39.00" departLane="43546789#0_1" departPos="11.16" departSpeed="0.00" departDelay="0.81" arrival="150.00" arrivalLane="E9_2" arrivalPos="42.23" arrivalSpeed="7.45" duration="111.00" routeLength="1102.74" waitingTime="0.00" waitingCount="0" stopTime="0.00" timeLoss="27.57" rerouteNo="0" devices="tripinfo_veh67" vType="passenger" speedFactor="1.01" vaporized=""/>
    <tripinfo id="veh225" depart="129.00" departLane="647347140#2_1" departPos="0.68" departSpeed="0.00" departDelay="0.75" arrival="152.00" arrivalLane="43573547#1_1" arrivalPos="25.37" arrivalSpeed="11.82" duration="23.00" routeLength="226.10" waitingTime="0.00" waitingCount="0" stopTime="0.00" timeLoss="3.50" rerouteNo="0" devices="tripinfo_veh225" vType="passenger" speedFactor="0.88" vaporized=""/>
    <tripinfo id="veh25" depart="15.00" departLane="-48736664#1_1" departPos="33.94" departSpeed="0.00" departDelay="0.75" arrival="153.00" arrivalLane="-256684296_0" arrivalPos="80.07" arrivalSpeed="2.31" duration="138.00" routeLength="1029.36" waitingTime="5.00" waitingCount="1" stopTime="0.00" timeLoss="35.80" rerouteNo="0" devices="tripinfo_veh25" vType="passenger" speedFactor="0.99" vaporized=""/>
    <tripinfo id="veh39" depart="23.00" departLane="-143207979#8_1" departPos="33.75" departSpeed="0.00" departDelay="0.77" arrival="165.00" arrivalLane="859732801#1_1" arrivalPos="25.05" arrivalSpeed="15.61" duration="142.00" routeLength="1814.30" waitingTime="0.00" waitingCount="0" stopTime="0.00" timeLoss="25.89" rerouteNo="0" devices="tripinfo_veh39" vType="passenger" speedFactor="1.17" vaporized=""/>
    <tripinfo id="veh64" depart="37.00" departLane="-1136283379#0_1" departPos="17.51" departSpeed="0.00" departDelay="0.52" arrival="165.00" arrivalLane="-40236203#3_1" arrivalPos="78.82" arrivalSpeed="14.32" duration="128.00" routeLength="1177.48" waitingTime="2.00" waitingCount="1" stopTime="0.00" timeLoss="34.97" rerouteNo="0" devices="tripinfo_veh64" vType="passenger" speedFactor="1.08" vaporized=""/>
    <tripinfo id="veh203" depart="116.00" departLane="-43544138#5_1" departPos="31.24" departSpeed="0.00" departDelay="0.29" arrival="170.00" arrivalLane="-43544179#7_1" arrivalPos="45.60" arrivalSpeed="11.92" duration="54.00" routeLength="623.60" waitingTime="0.00" waitingCount="0" stopTime="0.00" timeLoss="9.70" rerouteNo="0" devices="tripinfo_veh203" vType="motorcycle" speedFactor="1.04" vaporized=""/>
    <tripinfo id="veh138" depart="79.00" departLane="43546793_1" departPos="184.71" departSpeed="0.00" departDelay="0.34" arrival="171.00" arrivalLane="-43547256#1_1" arrivalPos="152.01" arrivalSpeed="13.75" duration="92.00" routeLength="1078.32" waitingTime="0.00" waitingCount="0" stopTime="0.00" timeLoss="16.49" rerouteNo="0" devices="tripinfo_veh138" vType="passenger" speedFactor="1.06" vaporized=""/>
    <tripinfo id="veh260" depart="149.00" departLane="-258551321_1" departPos="43.38" departSpeed="0.00" departDelay="0.80" arrival="172.00" arrivalLane="984508804_0" arrivalPos="26.89" arrivalSpeed="5.93" duration="23.00" routeLength="204.14" waitingTime="0.00" waitingCount="0" stopTime="0.00" timeLoss="6.48" rerouteNo="0" devices="tripinfo_veh260" vType="passenger" speedFactor="1.13" vaporized=""/>
    <tripinfo id="veh3" depart="2.00" departLane="-43546789#0_1" departPos="8.65" departSpeed="0.00" departDelay="0.29" arrival="174.00" arrivalLane="-E13_1" arrivalPos="78.22" arrivalSpeed="13.85" duration="172.00" routeLength="1534.05" waitingTime="22.00" waitingCount="2" stopTime="0.00" timeLoss="55.47" rerouteNo="0" devices="tripinfo_veh3" vType="passenger" speedFactor="1.08" vaporized=""/>
    <tripinfo id="veh182" depart="104.00" departLane="48797765#1_1" departPos="18.04" departSpeed="0.00" departDelay="0.26" arrival="175.00" arrivalLane="43546570#0_1" arrivalPos="43.31" arrivalSpeed="12.77" duration="71.00" routeLength="618.47" waitingTime="7.00" waitingCount="1" stopTime="0.00" timeLoss="23.62" rerouteNo="0" devices="tripinfo_veh182" vType="motorcycle" speedFactor="1.00" vaporized=""/>
    <tripinfo id="veh24" depart="14.00" departLane="48778475#0_1" departPos="33.65" departSpeed="0.00" departDelay="0.32" arrival="176.00" arrivalLane="-43544197#2_1" arrivalPos="42.39" arrivalSpeed="14.95" duration="162.00" routeLength="2085.58" waitingTime="0.00" waitingCount="0" stopTime="0.00" timeLoss="24.99" rerouteNo="0" devices="tripinfo_veh24" vType="passenger" speedFactor="1.12" vaporized=""/>
    <tripinfo id="veh209" depart="120.00" departLane="-48778486_1" departPos="4.04" departSpeed="0.00" departDelay="0.87" arrival="181.00" arrivalLane="-223883703_0" arrivalPos="83.93" arrivalSpeed="4.80" duration="61.00" routeLength="480.40" waitingTime="0.00" waitingCount="0" stopTime="0.00" timeLoss="12.78" rerouteNo="0" devices="tripinfo_veh209" vType="passenger" speedFactor="0.96" vaporized=""/>
    <tripinfo id="veh91" depart="52.00" departLane="-48778516_1" departPos="156.85" departSpeed="0.00" departDelay="0.13" arrival="182.00" arrivalLane="48778512_1" arrivalPos="67.72" arrivalSpeed="6.28" duration="130.00" routeLength="764.17" waitingTime="0.00" waitingCount="0" stopTime="0.00" timeLoss="13.10" rerouteNo="0" devices="tripinfo_veh91" vType="bicycle" speedFactor="1.18" vaporized=""/>
    <tripinfo id="veh9" depart="6.00" departLane="40265775#1_1" departPos="20.20" departSpeed="0.00" departDelay="0.87" arrival="184.00" arrivalLane="-1250915724#0_1" arrivalPos="12.38" arrivalSpeed="4.12" duration="178.00" routeLength="1344.24" waitingTime="18.00" waitingCount="1" stopTime="0.00" timeLoss="45.96" rerouteNo="0" devices="tripinfo_veh9" vType="passenger" speedFactor="0.90" vaporized=""/>
    <tripinfo id="veh297" depart="170.00" departLane="304695350#2_1" departPos="4.36" departSpeed="0.00" departDelay="0.71" arrival="184.00" arrivalLane="40314853#3_1" arrivalPos="25.28" arrivalSpeed="13.16" duration="14.00" routeLength="119.99" waitingTime="0.00" waitingCount="0" stopTime="0.00" timeLoss="4.24" rerouteNo="0" devices="tripinfo_veh297" vType="motorcycle" speedFactor="1.12" vaporized=""/>
    <tripinfo id="veh47" depart="27.00" departLane="-43547296#0_1" departPos="96.25" departSpeed="0.00" departDelay="0.21" arrival="185.00" arrivalLane="222605085#1_1" arrivalPos="200.56" arrivalSpeed="12.96" duration="158.00" routeLength="1740.38" waitingTime="0.00" waitingCount="0" stopTime="0.00" timeLoss="28.39" rerouteNo="0" devices="tripinfo_veh47" vType="passenger" speedFactor="1.00" vaporized=""/>
    <tripinfo id="veh100" depart="57.00" departLane="-1364605473_0" departPos="13.30" departSpeed="0.00" departDelay="0.00" arrival="186.00" arrivalLane="48778453_1" arrivalPos="29.18" arrivalSpeed="10.68" duration="129.00" routeLength="1095.34" waitingTime="24.00" waitingCount="1" stopTime="0.00" timeLoss="43.28" rerouteNo="0" devices="tripinfo_veh100" vType="passenger" speedFactor="1.00" vaporized=""/>
    <tripinfo id="veh195" depart="112.00" departLane="40266908#1_1" departPos="16.13" departSpeed="0.00" departDelay="0.85" arrival="187.00" arrivalLane="-273835688_1" arrivalPos="177.49" arrivalSpeed="13.57" duration="75.00" routeLength="746.92" waitingTime="0.00" waitingCount="0" stopTime="0.00" timeLoss="17.07" rerouteNo="0" devices="tripinfo_veh195" vType="emergency" speedFactor="1.00" vaporized=""/>
    <tripinfo id="veh50" depart="29.00" departLane="48778487#1_1" departPos="166.66" departSpeed="0.00" departDelay="0.50" arrival="191.00" arrivalLane="258551279_0" arrivalPos="179.06" arrivalSpeed="4.90" duration="162.00" routeLength="1433.97" waitingTime="0.00" waitingCount="0" stopTime="0.00" timeLoss="32.43" rerouteNo="0" devices="tripinfo_veh50" vType="delivery" speedFactor="0.99" vaporized=""/>
    <tripinfo id="veh66" depart="38.00" departLane="40305706#1_1" departPos="52.37" departSpeed="0.00" departDelay="0.38" arrival="194.00" arrivalLane="-1250915720#5_1" arrivalPos="1.24" arrivalSpeed="4.81" duration="156.00" routeLength="1354.43" waitingTime="4.00" waitingCount="1" stopTime="0.00" timeLoss="41.63" rerouteNo="0" devices="tripinfo_veh66" vType="passenger" speedFactor="0.98" vaporized=""/>
    <personinfo id="ped8" depart="40.00" type="DEFAULT_PEDTYPE" speedFactor="0.76" duration="155.00" waitingTime="0.00" timeLoss="15.64" traveltime="155.00">
        <walk depart="40.00" departPos="0.00" arrival="195.00" arrivalPos="8.83" duration="155.00" routeLength="147.93" timeLoss="15.64" maxSpeed="1.06"/>
    </personinfo>
    <tripinfo id="veh58" depart="34.00" departLane="43546039#3_1" departPos="9.35" departSpeed="0.00" departDelay="0.94" arrival="195.00" arrivalLane="-945794107_1" arrivalPos="125.84" arrivalSpeed="9.25" duration="161.00" routeLength="1633.39" waitingTime="24.00" waitingCount="1" stopTime="0.00" timeLoss="47.96" rerouteNo="0" devices="tripinfo_veh58" vType="passenger" speedFactor="1.12" vaporized=""/>
    <tripinfo id="veh158" depart="91.00" departLane="48778487#1_1" departPos="40.99" departSpeed="0.00" departDelay="0.94" arrival="195.00" arrivalLane="-67712683_1" arrivalPos="77.22" arrivalSpeed="15.54" duration="104.00" routeLength="1287.94" waitingTime="0.00" waitingCount="0" stopTime="0.00" timeLoss="19.89" rerouteNo="0" devices="tripinfo_veh158" vType="passenger" speedFactor="1.15" vaporized=""/>
    <tripinfo id="veh92" depart="53.00" departLane="43546789#1_1" departPos="44.11" departSpeed="0.00" departDelay="0.56" arrival="197.00" arrivalLane="-492965073#5_1" arrivalPos="154.22" arrivalSpeed="14.87" duration="144.00" routeLength="1278.05" waitingTime="33.00" waitingCount="2" stopTime="0.00" timeLoss="60.79" rerouteNo="0" devices="tripinfo_veh92" vType="passenger" speedFactor="1.13" vaporized=""/>
    <tripinfo id="veh48" depart="28.00" departLane="223883703_0" departPos="71.88" departSpeed="0.00" departDelay="0.64" arrival="198.00" arrivalLane="43546039#0_1" arrivalPos="195.13" arrivalSpeed="15.25" duration="170.00" routeLength="2148.29" waitingTime="10.00" waitingCount="1" stopTime="0.00" timeLoss="28.89" rerouteNo="0" devices="tripinfo_veh48" vType="passenger" speedFactor="1.12" vaporized=""/>
    <tripinfo id="veh132" depart="76.00" departLane="-1015948619_0" departPos="13.89" departSpeed="0.00" departDelay="0.76" arrival="201.00" arrivalLane="289113877#1_1" arrivalPos="149.37" arrivalSpeed="12.49" duration="125.00" routeLength="1436.98" waitingTime="0.00" waitingCount="0" stopTime="0.00" timeLoss="12.82" rerouteNo="0" devices="tripinfo_veh132" vType="passenger" speedFactor="0.97" vaporized=""/>
    <tripinfo id="veh59" depart="34.00" departLane="-1136301818_1" departPos="31.68" departSpeed="0.00" departDelay="0.37" arrival="203.00" arrivalLane="-43546109_1" arrivalPos="180.58" arrivalSpeed="13.22" duration="169.00" routeLength="1677.66" waitingTime="0.00" waitingCount="0" stopTime="0.00" timeLoss="41.19" rerouteNo="0" devices="tripinfo_veh59" vType="passenger" speedFactor="1.03" vaporized=""/>
    <tripinfo id="veh245" depart="140.00" departLane="848060815_1" departPos="26.18" departSpeed="0.00" departDelay="0.35" arrival="203.00" arrivalLane="40299276#1_1" arrivalPos="70.79" arrivalSpeed="13.32" duration="63.00" routeLength="664.75" waitingTime="0.00" waitingCount="0" stopTime="0.00" timeLoss="10.16" rerouteNo="0" devices="tripinfo_veh245" vType="passenger" speedFactor="0.97" vaporized=""/>
    <tripinfo id="veh196" depart="112.00" departLane="43546109_1" departPos="116.35" departSpeed="0.00" departDelay="0.28" arrival="209.00" arrivalLane="1136289991_1" arrivalPos="31.14" arrivalSpeed="8.65" duration="97.00" routeLength="1077.36" waitingTime="0.00" waitingCount="0" stopTime="0.00" timeLoss="20.81" rerouteNo="0" devices="tripinfo_veh196" vType="passenger" speedFactor="1.10" vaporized=""/>
    <tripinfo id="veh77" depart="44.00" departLane="-E13_2" departPos="72.42" departSpeed="0.00" departDelay="0.11" arrival="211.00" arrivalLane="-43544184#1_1" arrivalPos="0.22" arrivalSpeed="9.27" duration="167.00" routeLength="1991.69" waitingTime="0.00" waitingCount="0" stopTime="0.00" timeLoss="19.85" rerouteNo="0" devices="tripinfo_veh77" vType="emergency" speedFactor="1.00" vaporized=""/>
    <tripinfo id="veh36" depart="21.00" departLane="222609002#2_1" departPos="6.42" departSpeed="0.00" departDelay="0.48" arrival="214.00" arrivalLane="-250295383#5_1" arrivalPos="53.03" arrivalSpeed="12.75" duration="193.00" routeLength="1654.78" waitingTime="25.00" waitingCount="2" stopTime="0.00" timeLoss="53.19" rerouteNo="0" devices="tripinfo_veh36" vType="passenger" speedFactor="0.95" vaporized=""/>
    <tripinfo id="veh60" depart="35.00" departLane="945794111_1" departPos="11.71" departSpeed="0.00" departDelay="0.80" arrival="214.00" arrivalLane="984521611#0_0" arrivalPos="6.07" arrivalSpeed="4.03" duration="179.00" routeLength="1533.30" waitingTime="13.00" waitingCount="2" stopTime="0.00" timeLoss="47.49" rerouteNo="0" devices="tripinfo_veh60" vType="passenger" speedFactor="0.92" vaporized=""/>
    <tripinfo id="veh150" depart="86.00" departLane="-48778485#1_1" departPos="2.58" departSpeed="0.00" departDelay="0.50" arrival="216.00" arrivalLane="1136289991_1" arrivalPos="31.14" arrivalSpeed="6.43" duration="130.00" routeLength="1211.01" waitingTime="0.00" waitingCount="0" stopTime="0.00" timeLoss="24.21" rerouteNo="0" devices="tripinfo_veh150" vType="passenger" speedFactor="0.89" vaporized=""/>
    <tripinfo id="veh349" depart="199.00" departLane="-859734514#0_0" departPos="13.60" departSpeed="0.00" departDelay="0.07" arrival="221.00" arrivalLane="354259933#3_1" arrivalPos="57.36" arrivalSpeed="12.52" duration="22.00" routeLength="202.57" waitingTime="0.00" waitingCount="0" stopTime="0.00" timeLoss="3.46" rerouteNo="0" devices="tripinfo_veh349" vType="delivery" speedFactor="0.98" vaporized=""/>
    <personinfo id="ped1" depart="5.00" type="DEFAULT_PEDTYPE" speedFactor="0.83" duration="217.00" waitingTime="0.00" timeLoss="33.52" traveltime="217.00">
        <walk depart="5.00" departPos="0.00" arrival="222.00" arrivalPos="21.20" duration="217.00" routeLength="211.76" timeLoss="33.52" maxSpeed="1.15"/>
    </personinfo>
    <tripinfo id="veh283" depart="162.00" departLane="530103975#1_1" departPos="12.38" departSpeed="0.00" departDelay="0.69" arrival="224.00" arrivalLane="48736638#1_1" arrivalPos="89.48" arrivalSpeed="13.33" duration="62.00" routeLength="531.45" waitingTime="0.00" waitingCount="0" stopTime="0.00" timeLoss="11.66" rerouteNo="0" devices="tripinfo_veh283" vType="passenger" speedFactor="1.02" vaporized=""/>
    <tripinfo id="veh13" depart="8.00" departLane="40236164_1" departPos="102.60" departSpeed="0.00" departDelay="0.59" arrival="227.00" arrivalLane="1136283361_0" arrivalPos="47.88" arrivalSpeed="4.27" duration="219.00" routeLength="1261.68" waitingTime="79.00" waitingCount="3" stopTime="0.00" timeLoss="113.77" rerouteNo="0" devices="tripinfo_veh13" vType="emergency" speedFactor="1.00" vaporized=""/>
    <tripinfo id="veh361" depart="206.00" departLane="92198453#3_1" departPos="0.10" departSpeed="0.00" departDelay="0.23" arrival="228.00" arrivalLane="-470210923#3_2" arrivalPos="33.17" arrivalSpeed="13.60" duration="22.00" routeLength="213.45" waitingTime="0.00" waitingCount="0" stopTime="0.00" timeLoss="5.86" rerouteNo="0" devices="tripinfo_veh361" vType="passenger" speedFactor="1.03" vaporized=""/>
    <tripinfo id="veh44" depart="26.00" departLane="-470210923#3_2" departPos="22.40" departSpeed="0.00" departDelay="0.92" arrival="231.00" arrivalLane="43546039#3_1" arrivalPos="47.87" arrivalSpeed="12.42" duration="205.00" routeLength="2307.60" waitingTime="0.00" waitingCount="0" stopTime="0.00" timeLoss="29.84" rerouteNo="0" devices="tripinfo_veh44" vType="delivery" speedFactor="0.98" vaporized=""/>
    <tripinfo id="veh136" depart="78.00" departLane="-48736640#1_1" departPos="52.06" departSpeed="0.00" departDelay="0.48" arrival="232.00" arrivalLane="-43546789#3_1" arrivalPos="80.35" arrivalSpeed="11.40" duration="154.00" routeLength="1414.61" waitingTime="4.00" waitingCount="2" stopTime="0.00" timeLoss="32.40" rerouteNo="0" devices="tripinfo_veh136" vType="passenger" speedFactor="0.87" vaporized=""/>
    <tripinfo id="veh241" depart="138.00" departLane="945794111_1" departPos="43.31" departSpeed="0.00" departDelay="0.63" arrival="233.00" arrivalLane="859734514#1_0" arrivalPos="56.51" arrivalSpeed="5.08" duration="95.00" routeLength="841.45" waitingTime="0.00" waitingCount="0" stopTime="0.00" timeLoss="17.29" rerouteNo="0" devices="tripinfo_veh241" vType="passenger" speedFactor="0.98" vaporized=""/>
    <tripinfo id="veh206" depart="118.00" departLane="-48736612#5_1" departPos="11.25" departSpeed="0.00" departDelay="0.58" arrival="236.00" arrivalLane="-250295513_1" arrivalPos="43.99" arrivalSpeed="16.55" duration="118.00" routeLength="1478.14" waitingTime="0.00" waitingCount="0" stopTime="0.00" timeLoss="29.29" rerouteNo="0" devices="tripinfo_veh206" vType="passenger" speedFactor="1.26" vaporized=""/>
    <tripinfo id="veh166" depart="95.00" departLane="40236220#0_1" departPos="6.38" departSpeed="0.00" departDelay="0.38" arrival="241.00" arrivalLane="143207979#2_1" arrivalPos="38.81" arrivalSpeed="13.36" duration="146.00" routeLength="1723.52" waitingTime="0.00" waitingCount="0" stopTime="0.00" timeLoss="19.01" rerouteNo="0" devices="tripinfo_veh166" vType="emergency" speedFactor="1.00" vaporized=""/>
    <tripinfo id="veh84" depart="48.00" departLane="859728208#0_0" departPos="12.65" departSpeed="0.00" departDelay="0.12" arrival="243.00" arrivalLane="43546105#0_1" arrivalPos="198.99" arrivalSpeed="12.99" duration="195.00" routeLength="1952.55" waitingTime="0.00" waitingCount="0" stopTime="0.00" timeLoss="30.02" rerouteNo="0" devices="tripinfo_veh84" vType="passenger" speedFactor="0.98" vaporized=""/>
    <tripinfo id="veh65" depart="38.00" departLane="-43546105#2_1" departPos="10.26" departSpeed="0.00" departDelay="0.95" arrival="244.00" arrivalLane="-E10_1" arrivalPos="114.86" arrivalSpeed="13.28" duration="206.00" routeLength="1745.49" waitingTime="46.00" waitingCount="2" stopTime="0.00" timeLoss="74.64" rerouteNo="0" devices="tripinfo_veh65" vType="passenger" speedFactor="0.98" vaporized=""/>
    <tripinfo id="veh322" depart="184.00" departLane="40236203#3_1" departPos="60.03" departSpeed="0.00" departDelay="0.46" arrival="245.00" arrivalLane="48736645_1" arrivalPos="132.12" arrivalSpeed="16.14" duration="61.00" routeLength="698.39" waitingTime="0.00" waitingCount="0" stopTime="0.00" timeLoss="15.10" rerouteNo="0" devices="tripinfo_veh322" vType="passenger" speedFactor="1.19" vaporized=""/>
    <tripinfo id="veh30" depart="18.00" departLane="-40330557#3_1" departPos="9.87" departSpeed="0.00" departDelay="0.90" arrival="246.00" arrivalLane="48778493#2_1" arrivalPos="44.65" arrivalSpeed="4.40" duration="228.00" routeLength="956.34" waitingTime="0.00" waitingCount="0" stopTime="0.00" timeLoss="21.31" rerouteNo="0" devices="tripinfo_veh30" vType="bicycle" speedFactor="0.83" vaporized=""/>
    <tripinfo id="veh123" depart="71.00" departLane="40236228#0_1" departPos="78.43" departSpeed="0.00" departDelay="0.89" arrival="246.00" arrivalLane="-1158942155_1" arrivalPos="54.46" arrivalSpeed="9.94" duration="175.00" routeLength="1891.40" waitingTime="1.00" waitingCount="1" stopTime="0.00" timeLoss="52.33" rerouteNo="0" devices="tripinfo_veh123" vType="passenger" speedFactor="1.18" vaporized=""/>
    <tripinfo id="veh71" depart="41.00" departLane="48778480#5_1" departPos="93.27" departSpeed="0.00" departDelay="0.53" arrival="247.00" arrivalLane="859734513_0" arrivalPos="94.32" arrivalSpeed="4.71" duration="206.00" routeLength="1609.93" waitingTime="42.00" waitingCount="1" stopTime="0.00" timeLoss="76.29" rerouteNo="0" devices="tripinfo_veh71" vType="passenger" speedFactor="1.05" vaporized=""/>
    <tripinfo id="veh32" depart="19.00" departLane="-48736655_1" departPos="0.82" departSpeed="0.00" departDelay="0.76" arrival="248.00" arrivalLane="43573573#0_1" arrivalPos="20.39" arrivalSpeed="11.11" duration="229.00" routeLength="2412.67" waitingTime="17.00" waitingCount="3" stopTime="0.00" timeLoss="62.33" rerouteNo="0" devices="tripinfo_veh32" vType="passenger" speedFactor="1.07" vaporized=""/>
    <tripinfo id="veh18" depart="11.00" departLane="-48778446#2_1" departPos="0.38" departSpeed="0.00" departDelay="0.74" arrival="250.00" arrivalLane="1250915720#3_1" arrivalPos="2.51" arrivalSpeed="3.67" duration="239.00" routeLength="2025.45" waitingTime="19.00" waitingCount="2" stopTime="0.00" timeLoss="47.28" rerouteNo="0" devices="tripinfo_veh18" vType="passenger" speedFactor="0.87" vaporized=""/>
    <tripinfo id="veh170" depart="97.00" departLane="-1364605473_0" departPos="11.69" departSpeed="0.00" departDelay="0.10" arrival="252.00" arrivalLane="-43546648#1_1" arrivalPos="105.30" arrivalSpeed="13.59" duration="155.00" routeLength="1637.14" waitingTime="0.00" waitingCount="0" stopTime="0.00" timeLoss="26.88" rerouteNo="0" devices="tripinfo_veh170" vType="passenger" speedFactor="0.98" vaporized=""/>
    <tripinfo id="veh88" depart="51.00" departLane="-40330575#2_1" departPos="0.85" departSpeed="0.00" departDelay="0.84" arrival="253.00" arrivalLane="-48736613#4_1" arrivalPos="22.23" arrivalSpeed="10.47" duration="202.00" routeLength="1523.60" waitingTime="56.00" waitingCount="3" stopTime="0.00" timeLoss="91.34" rerouteNo="0" devices="tripinfo_veh88" vType="delivery" speedFactor="1.01" vaporized=""/>
    <personinfo id="ped9" depart="45.00" type="DEFAULT_PEDTYPE" speedFactor="1.06" duration="209.00" waitingTime="0.00" timeLoss="20.78" traveltime="209.00">
        <walk depart="45.00" departPos="0.00" arrival="254.00" arrivalPos="7.20" duration="209.00" routeLength="278.15" timeLoss="20.78" maxSpeed="1.48"/>
    </personinfo>
    <tripinfo id="veh343" depart="196.00" departLane="48778475#2_1" departPos="59.69" departSpeed="0.00" departDelay="0.49" arrival="254.00" arrivalLane="40236220#0_1" arrivalPos="34.75" arrivalSpeed="12.63" duration="58.00" routeLength="549.57" waitingTime="0.00" waitingCount="0" stopTime="0.00" timeLoss="12.59" rerouteNo="0" devices="tripinfo_veh343" vType="passenger" speedFactor="0.96" vaporized=""/>
    <tripinfo id="veh127" depart="73.00" departLane="43546789#0_1" departPos="8.22" departSpeed="0.00" departDelay="0.61" arrival="255.00" arrivalLane="-33909936#1_1" arrivalPos="133.03" arrivalSpeed="11.19" duration="182.00" routeLength="1696.99" waitingTime="9.00" waitingCount="2" stopTime="0.00" timeLoss="38.44" rerouteNo="0" devices="tripinfo_veh127" vType="passenger" speedFactor="0.88" vaporized=""/>
    <tripinfo id="veh62" depart="36.00" departLane="1205541344_0" departPos="55.16" departSpeed="0.00" departDelay="0.66" arrival="257.00" arrivalLane="-48778485#0_1" arrivalPos="25.13" arrivalSpeed="11.97" duration="221.00" routeLength="2165.02" waitingTime="0.00" waitingCount="0" stopTime="0.00" timeLoss="32.86" rerouteNo="0" devices="tripinfo_veh62" vType="passenger" speedFactor="0.90" vaporized=""/>
    <tripinfo id="veh174" depart="100.00" departLane="48736667_1" departPos="52.36" departSpeed="0.00" departDelay="0.82" arrival="257.00" arrivalLane="353939585#0_1" arrivalPos="26.36" arrivalSpeed="13.40" duration="157.00" routeLength="1311.11" waitingTime="25.00" waitingCount="2" stopTime="0.00" timeLoss="66.92" rerouteNo="0" devices="tripinfo_veh174" vType="motorcycle" speedFactor="1.10" vaporized=""/>