<?xml version="1.0" encoding="UTF-8"?>

<!-- generated on 2025-06-15 22:16:43 by Eclipse SUMO sumo Version 1.22.0
<sumoConfiguration xmlns:xsi="http://www.w3.org/2001/XMLSchema-instance" xsi:noNamespaceSchemaLocation="http://sumo.dlr.de/xsd/sumoConfiguration.xsd">

    <input>
        <net-file value="E:/licenta/oras-mediu/2025-06-05-11-45-23\osm.net.xml"/>
        <route-files value="E:/licenta/oras-mediu/2025-06-05-11-45-23\full.rou.xml,E:/licenta/oras-mediu/2025-06-05-11-45-23\ ped.rou.xml,E:/licenta/oras-mediu/2025-06-05-11-45-23\ truck.rou.xml"/>
        <additional-files value="E:/licenta/oras-mediu/2025-06-05-11-45-23\osm.poly.xml,E:/licenta/oras-mediu/2025-06-05-11-45-23\ vtypes.xml"/>
    </input>

    <output>
        <summary-output value="E:/licenta/oras-mediu/2025-06-05-11-45-23\summary.xml"/>
        <tripinfo-output value="E:/licenta/oras-mediu/2025-06-05-11-45-23\tripinfo.xml"/>
    </output>

    <processing>
        <ignore-route-errors value="true"/>
        <tls.actuated.jam-threshold value="30"/>
    </processing>

    <routing>
        <device.rerouting.adaptation-steps value="18"/>
        <device.rerouting.adaptation-interval value="10"/>
    </routing>

    <report>
        <verbose value="true"/>
        <duration-log.statistics value="true"/>
        <no-step-log value="true"/>
    </report>

    <traci_server>
        <remote-port value="49888"/>
    </traci_server>

    <gui_only>
        <gui-settings-file value="E:/licenta/oras-mediu/2025-06-05-11-45-23\osm.view.xml"/>
    </gui_only>

</sumoConfiguration>
-->

<tripinfos xmlns:xsi="http://www.w3.org/2001/XMLSchema-instance" xsi:noNamespaceSchemaLocation="http://sumo.dlr.de/xsd/tripinfo_file.xsd">
    <tripinfo id="veh11" depart="9.00" departLane="-995053161_0" departPos="98.74" departSpeed="0.00" departDelay="0.97" arrival="41.00" arrivalLane="995053163#2_0" arrivalPos="132.51" arrivalSpeed="5.04" duration="32.00" routeLength="147.95" waitingTime="0.00" waitingCount="0" stopTime="0.00" timeLoss="4.50" rerouteNo="0" devices="tripinfo_veh11" vType="delivery" speedFactor="0.97" vaporized=""/>
    <tripinfo id="veh25" depart="19.00" departLane="43573478_1" departPos="61.15" departSpeed="0.00" departDelay="0.75" arrival="69.00" arrivalLane="-48778473#2_1" arrivalPos="37.09" arrivalSpeed="12.76" duration="50.00" routeLength="543.40" waitingTime="0.00" waitingCount="0" stopTime="0.00" timeLoss="9.67" rerouteNo="0" devices="tripinfo_veh25" vType="motorcycle" speedFactor="1.02" vaporized=""/>
    <tripinfo id="veh17" depart="13.00" departLane="-996984132_0" departPos="101.58" departSpeed="0.00" departDelay="0.59" arrival="70.00" arrivalLane="-48778495#1_1" arrivalPos="16.52" arrivalSpeed="6.83" duration="57.00" routeLength="516.38" waitingTime="0.00" waitingCount="0" stopTime="0.00" timeLoss="9.63" rerouteNo="0" devices="tripinfo_veh17" vType="passenger" speedFactor="0.87" vaporized=""/>
    <tripinfo id="veh16" depart="12.00" departLane="-48736613#4_1" departPos="7.37" departSpeed="0.00" departDelay="0.32" arrival="73.00" arrivalLane="-1054663939_1" arrivalPos="21.68" arrivalSpeed="7.41" duration="61.00" routeLength="577.87" waitingTime="0.00" waitingCount="0" stopTime="0.00" timeLoss="14.18" rerouteNo="0" devices="tripinfo_veh16" vType="passenger" speedFactor="1.01" vaporized=""/>
    <personinfo id="ped15" depart="75.00" type="DEFAULT_PEDTYPE" speedFactor="1.08" duration="9.00" waitingTime="0.00" timeLoss="0.90" traveltime="9.00">
        <walk depart="75.00" departPos="0.00" arrival="84.00" arrivalPos="12.21" duration="9.00" routeLength="12.21" timeLoss="0.90" maxSpeed="1.51"/>
    </personinfo>
    <tripinfo id="veh27" depart="20.00" departLane="-1136283379#1_1" departPos="2.48" departSpeed="0.00" departDelay="0.29" arrival="84.00" arrivalLane="48778494#0_1" arrivalPos="50.01" arrivalSpeed="15.03" duration="64.00" routeLength="679.86" waitingTime="0.00" waitingCount="0" stopTime="0.00" timeLoss="14.59" rerouteNo="0" devices="tripinfo_veh27" vType="passenger" speedFactor="1.10" vaporized=""/>
    <tripinfo id="veh102" depart="75.00" departLane="-258551321_1" departPos="68.70" departSpeed="0.00" departDelay="0.54" arrival="88.00" arrivalLane="-578560104#4_1" arrivalPos="13.09" arrivalSpeed="9.25" duration="13.00" routeLength="92.49" waitingTime="0.00" waitingCount="0" stopTime="0.00" timeLoss="5.74" rerouteNo="0" devices="tripinfo_veh102" vType="passenger" speedFactor="1.03" vaporized=""/>
    <tripinfo id="veh45" depart="33.00" departLane="-492965073#8_2" departPos="18.96" departSpeed="0.00" departDelay="0.15" arrival="91.00" arrivalLane="647762524_1" arrivalPos="48.75" arrivalSpeed="15.53" duration="58.00" routeLength="548.41" waitingTime="0.00" waitingCount="0" stopTime="0.00" timeLoss="19.13" rerouteNo="0" devices="tripinfo_veh45" vType="passenger" speedFactor="1.12" vaporized=""/>
    <tripinfo id="veh65" depart="48.00" departLane="48736610#1_1" departPos="0.05" departSpeed="0.00" departDelay="0.55" arrival="99.00" arrivalLane="48736612#3_1" arrivalPos="54.88" arrivalSpeed="13.65" duration="51.00" routeLength="430.42" waitingTime="3.00" waitingCount="1" stopTime="0.00" timeLoss="17.73" rerouteNo="0" devices="tripinfo_veh65" vType="passenger" speedFactor="1.01" vaporized=""/>
    <tripinfo id="veh80" depart="59.00" departLane="647741479_1" departPos="65.85" departSpeed="0.00" departDelay="0.60" arrival="112.00" arrivalLane="40236093_1" arrivalPos="79.24" arrivalSpeed="14.15" duration="53.00" routeLength="548.89" waitingTime="0.00" waitingCount="0" stopTime="0.00" timeLoss="14.55" rerouteNo="0" devices="tripinfo_veh80" vType="passenger" speedFactor="1.08" vaporized=""/>
    <tripinfo id="veh83" depart="61.00" departLane="-48736617#1_1" departPos="20.63" departSpeed="0.00" departDelay="0.41" arrival="114.00" arrivalLane="48736631_1" arrivalPos="82.80" arrivalSpeed="8.14" duration="53.00" routeLength="493.62" waitingTime="0.00" waitingCount="0" stopTime="0.00" timeLoss="12.51" rerouteNo="0" devices="tripinfo_veh83" vType="delivery" speedFactor="1.03" vaporized=""/>
    <tripinfo id="veh2" depart="2.00" departLane="92198453#1_1" departPos="9.45" departSpeed="0.00" departDelay="0.54" arrival="118.00" arrivalLane="-48797771#2_1" arrivalPos="26.22" arrivalSpeed="11.69" duration="116.00" routeLength="1348.58" waitingTime="6.00" waitingCount="1" stopTime="0.00" timeLoss="24.25" rerouteNo="0" devices="tripinfo_veh2" vType="passenger" speedFactor="1.08" vaporized=""/>
    <tripinfo id="veh33" depart="25.00" departLane="945794110_1" departPos="43.23" departSpeed="0.00" departDelay="0.91" arrival="119.00" arrivalLane="-945793490#2_1" arrivalPos="11.86" arrivalSpeed="4.98" duration="94.00" routeLength="962.11" waitingTime="0.00" waitingCount="0" stopTime="0.00" timeLoss="12.57" rerouteNo="0" devices="tripinfo_veh33" vType="passenger" speedFactor="1.09" vaporized=""/>
    <tripinfo id="veh54" depart="40.00" departLane="-48778517#1_1" departPos="17.92" departSpeed="0.00" departDelay="0.58" arrival="131.00" arrivalLane="-43544138#4_1" arrivalPos="45.15" arrivalSpeed="14.33" duration="91.00" routeLength="946.41" waitingTime="0.00" waitingCount="0" stopTime="0.00" timeLoss="19.46" rerouteNo="0" devices="tripinfo_veh54" vType="passenger" speedFactor="1.06" vaporized=""/>
    <tripinfo id="veh3" depart="3.00" departLane="48778443#2_1" departPos="28.06" departSpeed="0.00" departDelay="0.81" arrival="132.00" arrivalLane="-48797767#0_1" arrivalPos="21.72" arrivalSpeed="11.93" duration="129.00" routeLength="1182.54" waitingTime="3.00" waitingCount="1" stopTime="0.00" timeLoss="24.69" rerouteNo="0" devices="tripinfo_veh3" vType="passenger" speedFactor="0.94" vaporized=""/>
    <tripinfo id="veh107" depart="79.00" departLane="-43573573#0_1" departPos="14.32" departSpeed="0.00" departDelay="0.89" arrival="132.00" arrivalLane="354259933#0_1" arrivalPos="10.70" arrivalSpeed="7.85" duration="53.00" routeLength="552.44" waitingTime="0.00" waitingCount="0" stopTime="0.00" timeLoss="10.23" rerouteNo="0" devices="tripinfo_veh107" vType="emergency" speedFactor="1.00" vaporized=""/>
    <personinfo id="ped4" depart="20.00" type="DEFAULT_PEDTYPE" speedFactor="0.82" duration="117.00" waitingTime="0.00" timeLoss="12.58" traveltime="117.00">
        <walk depart="20.00" departPos="0.00" arrival="137.00" arrivalPos="7.46" duration="117.00" routeLength="119.21" timeLoss="12.58" maxSpeed="1.14"/>
    </personinfo>
    <tripinfo id="veh47" depart="35.00" departLane="353939570#5_1" departPos="14.15" departSpeed="0.00" departDelay="0.69" arrival="137.00" arrivalLane="-33909936#4_1" arrivalPos="15.04" arrivalSpeed="11.01" duration="102.00" routeLength="1206.68" waitingTime="0.00" waitingCount="0" stopTime="0.00" timeLoss="12.89" rerouteNo="0" devices="tripinfo_veh47" vType="delivery" speedFactor="0.99" vaporized=""/>
    <tripinfo id="veh10" depart="8.00" departLane="40236259_1" departPos="85.59" departSpeed="0.00" departDelay="0.70" arrival="138.00" arrivalLane="48778443#2_1" arrivalPos="37.75" arrivalSpeed="14.40" duration="130.00" routeLength="1121.96" waitingTime="10.00" waitingCount="1" stopTime="0.00" timeLoss="41.20" rerouteNo="0" devices="tripinfo_veh10" vType="passenger" speedFactor="1.04" vaporized=""/>
    <tripinfo id="veh6" depart="5.00" departLane="40299739#2_1" departPos="29.10" departSpeed="0.00" departDelay="0.62" arrival="141.00" arrivalLane="-174818022#1_0" arrivalPos="93.09" arrivalSpeed="5.03" duration="136.00" routeLength="1069.69" waitingTime="0.00" waitingCount="0" stopTime="0.00" timeLoss="23.11" rerouteNo="0" devices="tripinfo_veh6" vType="passenger" speedFactor="0.92" vaporized=""/>
    <tripinfo id="veh160" depart="117.00" departLane="-1250915720#4_1" departPos="7.89" departSpeed="0.00" departDelay="0.20" arrival="142.00" arrivalLane="1250915720#1_1" arrivalPos="5.08" arrivalSpeed="5.22" duration="25.00" routeLength="123.51" waitingTime="0.00" waitingCount="0" stopTime="0.00" timeLoss="3.21" rerouteNo="0" devices="tripinfo_veh160" vType="passenger" speedFactor="1.03" vaporized=""/>
    <tripinfo id="veh58" depart="43.00" departLane="-43573573#4_1" departPos="15.90" departSpeed="0.00" departDelay="0.66" arrival="148.00" arrivalLane="143207979#8_1" arrivalPos="38.62" arrivalSpeed="15.02" duration="105.00" routeLength="1005.56" waitingTime="8.00" waitingCount="1" stopTime="0.00" timeLoss="33.31" rerouteNo="0" devices="tripinfo_veh58" vType="passenger" speedFactor="1.09" vaporized=""/>
    <tripinfo id="veh51" depart="38.00" departLane="-48778503#0_1" departPos="25.70" departSpeed="0.00" departDelay="0.77" arrival="153.00" arrivalLane="222605084#1_1" arrivalPos="0.36" arrivalSpeed="5.22" duration="115.00" routeLength="1140.06" waitingTime="0.00" waitingCount="0" stopTime="0.00" timeLoss="18.69" rerouteNo="0" devices="tripinfo_veh51" vType="passenger" speedFactor="1.02" vaporized=""/>
    <tripinfo id="veh149" depart="109.00" departLane="1250915724#1_1" departPos="15.81" departSpeed="0.00" departDelay="0.23" arrival="153.00" arrivalLane="-222605084#8_1" arrivalPos="2.30" arrivalSpeed="6.21" duration="44.00" routeLength="245.62" waitingTime="0.00" waitingCount="0" stopTime="0.00" timeLoss="5.97" rerouteNo="0" devices="tripinfo_veh149" vType="passenger" speedFactor="1.18" vaporized=""/>
    <tripinfo id="veh1" depart="1.00" departLane="-40236203#3_1" departPos="3.58" departSpeed="0.00" departDelay="0.27" arrival="156.00" arrivalLane="-43544197#0_1" arrivalPos="48.34" arrivalSpeed="14.82" duration="155.00" routeLength="2017.46" waitingTime="0.00" waitingCount="0" stopTime="0.00" timeLoss="19.01" rerouteNo="0" devices="tripinfo_veh1" vType="passenger" speedFactor="1.08" vaporized=""/>
    <tripinfo id="veh128" depart="94.00" departLane="40299739#3_1" departPos="42.31" departSpeed="0.00" departDelay="0.56" arrival="162.00" arrivalLane="1135854210_1" arrivalPos="13.11" arrivalSpeed="5.43" duration="68.00" routeLength="771.31" waitingTime="0.00" waitingCount="0" stopTime="0.00" timeLoss="14.92" rerouteNo="0" devices="tripinfo_veh128" vType="passenger" speedFactor="1.13" vaporized=""/>
    <tripinfo id="veh88" depart="65.00" departLane="48778464#1_1" departPos="4.56" departSpeed="0.00" departDelay="0.76" arrival="164.00" arrivalLane="-E12.34_1" arrivalPos="55.77" arrivalSpeed="12.32" duration="99.00" routeLength="1094.63" waitingTime="0.00" waitingCount="0" stopTime="0.00" timeLoss="15.40" rerouteNo="0" devices="tripinfo_veh88" vType="passenger" speedFactor="0.97" vaporized=""/>
    <tripinfo id="veh75" depart="55.00" departLane="-992542691_0" departPos="6.55" departSpeed="0.00" departDelay="0.25" arrival="168.00" arrivalLane="43573547#7_1" arrivalPos="83.95" arrivalSpeed="12.89" duration="113.00" routeLength="1263.96" waitingTime="0.00" waitingCount="0" stopTime="0.00" timeLoss="17.02" rerouteNo="0" devices="tripinfo_veh75" vType="emergency" speedFactor="1.00" vaporized=""/>
    <tripinfo id="veh117" depart="86.00" departLane="-48778510#1_1" departPos="36.13" departSpeed="0.00" departDelay="0.59" arrival="168.00" arrivalLane="43546115_1" arrivalPos="162.45" arrivalSpeed="11.91" duration="82.00" routeLength="794.94" waitingTime="0.00" waitingCount="0" stopTime="0.00" timeLoss="17.16" rerouteNo="0" devices="tripinfo_veh117" vType="passenger" speedFactor="0.94" vaporized=""/>
    <tripinfo id="veh35" depart="26.00" departLane="-289113877#0_1" departPos="228.62" departSpeed="0.00" departDelay="0.45" arrival="175.00" arrivalLane="258551279_0" arrivalPos="179.06" arrivalSpeed="4.75" duration="149.00" routeLength="1285.33" waitingTime="0.00" waitingCount="0" stopTime="0.00" timeLoss="18.14" rerouteNo="0" devices="tripinfo_veh35" vType="passenger" speedFactor="0.88" vaporized=""/>
    <tripinfo id="veh118" depart="87.00" departLane="43544179#8_1" departPos="34.74" departSpeed="0.00" departDelay="0.86" arrival="175.00" arrivalLane="-647347140#1_1" arrivalPos="28.09" arrivalSpeed="14.41" duration="88.00" routeLength="1039.50" waitingTime="0.00" waitingCount="0" stopTime="0.00" timeLoss="16.45" rerouteNo="0" devices="tripinfo_veh118" vType="passenger" speedFactor="1.07" vaporized=""/>
    <tripinfo id="veh132" depart="97.00" departLane="984521612#0_0" departPos="8.15" departSpeed="0.00" departDelay="0.64" arrival="184.00" arrivalLane="40269009#2_1" arrivalPos="65.05" arrivalSpeed="12.81" duration="87.00" routeLength="799.63" waitingTime="0.00" waitingCount="0" stopTime="0.00" timeLoss="20.50" rerouteNo="0" devices="tripinfo_veh132" vType="passenger" speedFactor="0.98" vaporized=""/>
    <tripinfo id="veh21" depart="16.00" departLane="-984521611#1_0" departPos="4.67" departSpeed="0.00" departDelay="0.67" arrival="186.00" arrivalLane="-40345956#1_1" arrivalPos="78.52" arrivalSpeed="15.79" duration="170.00" routeLength="2059.19" waitingTime="0.00" waitingCount="0" stopTime="0.00" timeLoss="32.63" rerouteNo="0" devices="tripinfo_veh21" vType="passenger" speedFactor="1.15" vaporized=""/>
    <tripinfo id="veh139" depart="102.00" departLane="-48778503#1_1" departPos="42.04" departSpeed="0.00" departDelay="0.53" arrival="187.00" arrivalLane="-996984133_1" arrivalPos="75.36" arrivalSpeed="5.97" duration="85.00" routeLength="467.77" waitingTime="0.00" waitingCount="0" stopTime="0.00" timeLoss="7.34" rerouteNo="0" devices="tripinfo_veh139" vType="bicycle" speedFactor="1.09" vaporized=""/>
    <tripinfo id="veh114" depart="84.00" departLane="-143207982#3_1" departPos="9.99" departSpeed="0.00" departDelay="0.78" arrival="188.00" arrivalLane="848060815_1" arrivalPos="138.45" arrivalSpeed="11.04" duration="104.00" routeLength="1060.86" waitingTime="0.00" waitingCount="0" stopTime="0.00" timeLoss="14.57" rerouteNo="0" devices="tripinfo_veh114" vType="passenger" speedFactor="0.89" vaporized=""/>
    <tripinfo id="veh20" depart="15.00" departLane="-40265774#1_2" departPos="29.66" departSpeed="0.00" departDelay="0.40" arrival="193.00" arrivalLane="48778527_1" arrivalPos="56.14" arrivalSpeed="11.63" duration="178.00" routeLength="1804.08" waitingTime="3.00" waitingCount="1" stopTime="0.00" timeLoss="27.68" rerouteNo="0" devices="tripinfo_veh20" vType="passenger" speedFactor="0.89" vaporized=""/>
    <tripinfo id="veh13" depart="10.00" departLane="-222605087#3_1" departPos="30.99" departSpeed="0.00" departDelay="0.51" arrival="195.00" arrivalLane="-40304754#1_1" arrivalPos="327.29" arrivalSpeed="12.92" duration="185.00" routeLength="2057.13" waitingTime="0.00" waitingCount="0" stopTime="0.00" timeLoss="21.45" rerouteNo="0" devices="tripinfo_veh13" vType="passenger" speedFactor="1.02" vaporized=""/>
    <tripinfo id="veh127" depart="93.00" departLane="-48778521#0_1" departPos="23.00" departSpeed="0.00" departDelay="0.29" arrival="196.00" arrivalLane="143207979#4_1" arrivalPos="45.53" arrivalSpeed="10.01" duration="103.00" routeLength="917.00" waitingTime="0.00" waitingCount="0" stopTime="0.00" timeLoss="12.16" rerouteNo="0" devices="tripinfo_veh127" vType="passenger" speedFactor="0.80" vaporized=""/>
    <tripinfo id="veh150" depart="110.00" departLane="-859732802#0_0" departPos="1.30" departSpeed="0.00" departDelay="0.50" arrival="197.00" arrivalLane="40266620_1" arrivalPos="32.51" arrivalSpeed="13.54" duration="87.00" routeLength="507.32" waitingTime="27.00" waitingCount="2" stopTime="0.00" timeLoss="45.91" rerouteNo="0" devices="tripinfo_veh150" vType="delivery" speedFactor="0.99" vaporized=""/>
    <tripinfo id="veh104" depart="76.00" departLane="-40334245#1_1" departPos="25.39" departSpeed="0.00" departDelay="0.08" arrival="198.00" arrivalLane="33909936#4_1" arrivalPos="15.05" arrivalSpeed="13.38" duration="122.00" routeLength="1542.89" waitingTime="0.00" waitingCount="0" stopTime="0.00" timeLoss="12.40" rerouteNo="0" devices="tripinfo_veh104" vType="passenger" speedFactor="1.04" vaporized=""/>
    <personinfo id="ped12" depart="60.00" type="DEFAULT_PEDTYPE" speedFactor="1.03" duration="141.00" waitingTime="0.00" timeLoss="14.80" traveltime="141.00">
        <walk depart="60.00" departPos="0.00" arrival="201.00" arrivalPos="12.41" duration="141.00" routeLength="181.37" timeLoss="14.80" maxSpeed="1.44"/>
    </personinfo>
    <tripinfo id="veh42" depart="31.00" departLane="-48778493#0_1" departPos="4.29" departSpeed="0.00" departDelay="0.34" arrival="201.00" arrivalLane="-43546039#3_1" arrivalPos="47.87" arrivalSpeed="13.48" duration="170.00" routeLength="1551.43" waitingTime="31.00" waitingCount="2" stopTime="0.00" timeLoss="53.27" rerouteNo="0" devices="tripinfo_veh42" vType="delivery" speedFactor="0.98" vaporized=""/>
    <tripinfo id="veh122" depart="90.00" departLane="-143207979#7_1" departPos="6.39" departSpeed="0.00" departDelay="0.94" arrival="202.00" arrivalLane="48778514#1_1" arrivalPos="264.87" arrivalSpeed="12.59" duration="112.00" routeLength="1098.19" waitingTime="3.00" waitingCount="1" stopTime="0.00" timeLoss="21.41" rerouteNo="0" devices="tripinfo_veh122" vType="passenger" speedFactor="0.91" vaporized=""/>
    <tripinfo id="veh147" depart="108.00" departLane="43546064#0_1" departPos="84.57" departSpeed="0.00" departDelay="0.69" arrival="202.00" arrivalLane="-383582514_1" arrivalPos="205.28" arrivalSpeed="6.37" duration="94.00" routeLength="827.35" waitingTime="0.00" waitingCount="0" stopTime="0.00" timeLoss="14.96" rerouteNo="0" devices="tripinfo_veh147" vType="passenger" speedFactor="0.91" vaporized=""/>
    <tripinfo id="veh12" depart="9.00" departLane="43544138#5_1" departPos="32.52" departSpeed="0.00" departDelay="0.24" arrival="205.00" arrivalLane="40236220#2_1" arrivalPos="24.83" arrivalSpeed="10.51" duration="196.00" routeLength="2062.07" waitingTime="1.00" waitingCount="1" stopTime="0.00" timeLoss="43.48" rerouteNo="0" devices="tripinfo_veh12" vType="emergency" speedFactor="1.00" vaporized=""/>
    <tripinfo id="veh30" depart="22.00" departLane="33913538#9_1" departPos="11.97" departSpeed="0.00" departDelay="0.10" arrival="206.00" arrivalLane="48797769_1" arrivalPos="15.35" arrivalSpeed="10.58" duration="184.00" routeLength="1194.03" waitingTime="79.00" waitingCount="1" stopTime="0.00" timeLoss="100.96" rerouteNo="0" devices="tripinfo_veh30" vType="passenger" speedFactor="1.07" vaporized=""/>
    <tripinfo id="veh171" depart="125.00" departLane="859732802#1_0" departPos="113.31" departSpeed="0.00" departDelay="0.17" arrival="206.00" arrivalLane="40330557#3_1" arrivalPos="31.45" arrivalSpeed="13.52" duration="81.00" routeLength="888.59" waitingTime="0.00" waitingCount="0" stopTime="0.00" timeLoss="16.18" rerouteNo="0" devices="tripinfo_veh171" vType="motorcycle" speedFactor="1.10" vaporized=""/>
    <tripinfo id="veh98" depart="72.00" departLane="945793491#0_1" departPos="28.63" departSpeed="0.00" departDelay="0.46" arrival="207.00" arrivalLane="40309190_1" arrivalPos="61.38" arrivalSpeed="13.31" duration="135.00" routeLength="1202.35" waitingTime="0.00" waitingCount="0" stopTime="0.00" timeLoss="25.50" rerouteNo="0" devices="tripinfo_veh98" vType="passenger" speedFactor="1.03" vaporized=""/>
    <tripinfo id="veh37" depart="28.00" departLane="43546092_1" departPos="96.43" departSpeed="0.00" departDelay="0.99" arrival="209.00" arrivalLane="-40306162#1_1" arrivalPos="43.20" arrivalSpeed="13.53" duration="181.00" routeLength="1952.85" waitingTime="4.00" waitingCount="1" stopTime="0.00" timeLoss="57.41" rerouteNo="0" devices="tripinfo_veh37" vType="passenger" speedFactor="1.17" vaporized=""/>
    <tripinfo id="veh231" depart="169.00" departLane="-48736621#2_1" departPos="9.50" departSpeed="0.00" departDelay="0.37" arrival="209.00" arrivalLane="-647677163_1" arrivalPos="79.04" arrivalSpeed="15.01" duration="40.00" routeLength="399.23" waitingTime="0.00" waitingCount="0" stopTime="0.00" timeLoss="11.61" rerouteNo="0" devices="tripinfo_veh231" vType="passenger" speedFactor="1.10" vaporized=""/>
    <tripinfo id="veh84" depart="62.00" departLane="67712683_1" departPos="11.40" departSpeed="0.00" departDelay="0.68" arrival="212.00" arrivalLane="-92198453#6_1" arrivalPos="74.13" arrivalSpeed="16.47" duration="150.00" routeLength="1902.43" waitingTime="0.00" waitingCount="0" stopTime="0.00" timeLoss="35.51" rerouteNo="0" devices="tripinfo_veh84" vType="passenger" speedFactor="1.25" vaporized=""/>
    <personinfo id="ped34" depart="170.00" type="DEFAULT_PEDTYPE" speedFactor="1.08" duration="44.00" waitingTime="0.00" timeLoss="4.83" traveltime="44.00">
        <walk depart="170.00" departPos="0.00" arrival="214.00" arrivalPos="58.74" duration="44.00" routeLength="58.74" timeLoss="4.83" maxSpeed="1.50"/>
    </personinfo>
    <tripinfo id="veh181" depart="133.00" departLane="-945793485#1_1" departPos="12.74" departSpeed="0.00" departDelay="0.87" arrival="214.00" arrivalLane="48778446#2_1" arrivalPos="11.20" arrivalSpeed="12.05" duration="81.00" routeLength="702.52" waitingTime="5.00" waitingCount="2" stopTime="0.00" timeLoss="31.08" rerouteNo="0" devices="tripinfo_veh181" vType="passenger" speedFactor="1.09" vaporized=""/>
    <tripinfo id="veh78" depart="57.00" departLane="48778498#2_1" departPos="15.90" departSpeed="0.00" departDelay="0.06" arrival="216.00" arrivalLane="-222605084#7_1" arrivalPos="34.66" arrivalSpeed="4.84" duration="159.00" routeLength="1132.18" waitingTime="2.00" waitingCount="1" stopTime="0.00" timeLoss="33.36" rerouteNo="0" devices="tripinfo_veh78" vType="passenger" speedFactor="0.89" vaporized=""/>
    <tripinfo id="veh90" depart="66.00" departLane="-945793490#4_1" departPos="24.42" departSpeed="0.00" departDelay="0.30" arrival="222.00" arrivalLane="-33913538#1_1" arrivalPos="225.54" arrivalSpeed="15.49" duration="156.00" routeLength="1896.15" waitingTime="0.00" waitingCount="0" stopTime="0.00" timeLoss="14.26" rerouteNo="0" devices="tripinfo_veh90" vType="passenger" speedFactor="1.13" vaporized=""/>
    <tripinfo id="veh237" depart="174.00" departLane="258551284#0_1" departPos="38.94" departSpeed="0.00" departDelay="0.99" arrival="222.00" arrivalLane="222609002#3_1" arrivalPos="89.31" arrivalSpeed="14.90" duration="48.00" routeLength="616.45" waitingTime="0.00" waitingCount="0" stopTime="0.00" timeLoss="6.70" rerouteNo="0" devices="tripinfo_veh237" vType="passenger" speedFactor="1.10" vaporized=""/>
    <tripinfo id="veh29" depart="22.00" departLane="43544138#3_1" departPos="19.19" departSpeed="0.00" departDelay="0.83" arrival="223.00" arrivalLane="1250915722#0_1" arrivalPos="65.49" arrivalSpeed="5.43" duration="201.00" routeLength="2071.09" waitingTime="3.00" waitingCount="1" stopTime="0.00" timeLoss="31.63" rerouteNo="0" devices="tripinfo_veh29" vType="passenger" speedFactor="1.03" vaporized=""/>
    <tripinfo id="veh109" depart="80.00" departLane="1205541342_1" departPos="7.85" departSpeed="0.00" departDelay="0.43" arrival="223.00" arrivalLane="-48778475#1_1" arrivalPos="25.99" arrivalSpeed="12.21" duration="143.00" routeLength="1310.02" waitingTime="23.00" waitingCount="1" stopTime="0.00" timeLoss="45.21" rerouteNo="0" devices="tripinfo_veh109" vType="passenger" speedFactor="1.06" vaporized=""/>
    <tripinfo id="veh70" depart="52.00" departLane="859732803#0_0" departPos="16.96" departSpeed="0.00" departDelay="0.90" arrival="227.00" arrivalLane="1232511776#0_1" arrivalPos="90.18" arrivalSpeed="11.70" duration="175.00" routeLength="1678.20" waitingTime="2.00" waitingCount="1" stopTime="0.00" timeLoss="27.07" rerouteNo="0" devices="tripinfo_veh70" vType="passenger" speedFactor="0.86" vaporized=""/>
    <tripinfo id="veh161" depart="118.00" departLane="48778493#1_1" departPos="10.23" departSpeed="0.00" departDelay="0.47" arrival="227.00" arrivalLane="40330571#2_1" arrivalPos="24.41" arrivalSpeed="13.43" duration="109.00" routeLength="1078.01" waitingTime="0.00" waitingCount="0" stopTime="0.00" timeLoss="22.16" rerouteNo="0" devices="tripinfo_veh161" vType="emergency" speedFactor="1.00" vaporized=""/>
    <tripinfo id="veh4" depart="3.00" departLane="174818022#2_0" departPos="23.90" departSpeed="0.00" departDelay="0.08" arrival="229.00" arrivalLane="-43546460#11_1" arrivalPos="10.09" arrivalSpeed="13.08" duration="226.00" routeLength="2428.02" waitingTime="9.00" waitingCount="2" stopTime="0.00" timeLoss="41.80" rerouteNo="0" devices="tripinfo_veh4" vType="passenger" speedFactor="1.02" vaporized=""/>
    <tripinfo id="veh15" depart="11.00" departLane="-40345956#3_1" departPos="0.80" departSpeed="0.00" departDelay="0.05" arrival="230.00" arrivalLane="143207979#2_1" arrivalPos="38.81" arrivalSpeed="11.50" duration="219.00" routeLength="2227.56" waitingTime="0.00" waitingCount="0" stopTime="0.00" timeLoss="30.20" rerouteNo="0" devices="tripinfo_veh15" vType="passenger" speedFactor="0.89" vaporized=""/>
    <tripinfo id="veh68" depart="50.00" departLane="1250915724#1_1" departPos="55.42" departSpeed="0.00" departDelay="0.36" arrival="231.00" arrivalLane="-43544184#1_1" arrivalPos="0.22" arrivalSpeed="14.00" duration="181.00" routeLength="1813.02" waitingTime="2.00" waitingCount="1" stopTime="0.00" timeLoss="31.91" rerouteNo="0" devices="tripinfo_veh68" vType="passenger" speedFactor="1.05" vaporized=""/>
    <tripinfo id="veh300" depart="219.00" departLane="984521612#0_0" departPos="1.81" departSpeed="0.00" departDelay="0.00" arrival="232.00" arrivalLane="984521611#1_0" arrivalPos="22.34" arrivalSpeed="4.15" duration="13.00" routeLength="51.03" waitingTime="0.00" waitingCount="0" stopTime="0.00" timeLoss="1.90" rerouteNo="0" devices="tripinfo_veh300" vType="passenger" speedFactor="0.87" vaporized=""/>
    <tripinfo id="veh64" depart="47.00" departLane="40265775#1_1" departPos="24.56" departSpeed="0.00" departDelay="0.28" arrival="236.00" arrivalLane="647998060#1_1" arrivalPos="57.23" arrivalSpeed="12.48" duration="189.00" routeLength="2136.85" waitingTime="0.00" waitingCount="0" stopTime="0.00" timeLoss="27.93" rerouteNo="0" devices="tripinfo_veh64" vType="passenger" speedFactor="0.98" vaporized=""/>
    <tripinfo id="veh162" depart="121.00" departLane="-48736610#3_1" departPos="5.76" departSpeed="0.00" departDelay="2.74" arrival="236.00" arrivalLane="353939570#1_2" arrivalPos="79.97" arrivalSpeed="13.90" duration="115.00" routeLength="1173.77" waitingTime="16.00" waitingCount="1" stopTime="0.00" timeLoss="33.99" rerouteNo="0" devices="tripinfo_veh162" vType="passenger" speedFactor="1.07" vaporized=""/>
    <tripinfo id="veh221" depart="162.00" departLane="48736667_1" departPos="74.28" departSpeed="0.00" departDelay="0.67" arrival="242.00" arrivalLane="-33913538#8_2" arrivalPos="2.19" arrivalSpeed="11.98" duration="80.00" routeLength="609.80" waitingTime="14.00" waitingCount="1" stopTime="0.00" timeLoss="28.21" rerouteNo="0" devices="tripinfo_veh221" vType="passenger" speedFactor="0.88" vaporized=""/>
    <tripinfo id="veh43" depart="32.00" departLane="-48736640#1_1" departPos="54.82" departSpeed="0.00" departDelay="0.61" arrival="243.00" arrivalLane="43546460#3_1" arrivalPos="54.30" arrivalSpeed="13.51" duration="211.00" routeLength="2452.18" waitingTime="1.00" waitingCount="1" stopTime="0.00" timeLoss="32.79" rerouteNo="0" devices="tripinfo_veh43" vType="passenger" speedFactor="1.02" vaporized=""/>
    <tripinfo id="veh264" depart="193.00" departLane="-647226815#0_1" departPos="9.43" departSpeed="0.00" departDelay="0.28" arrival="243.00" arrivalLane="-43544179#6_1" arrivalPos="35.50" arrivalSpeed="12.01" duration="50.00" routeLength="506.26" waitingTime="0.00" waitingCount="0" stopTime="0.00" timeLoss="10.92" rerouteNo="0" devices="tripinfo_veh264" vType="passenger" speedFactor="0.96" vaporized=""/>
    <tripinfo id="veh22" depart="17.00" departLane="-1250915720#6_1" departPos="11.62" departSpeed="0.00" departDelay="0.94" arrival="244.00" arrivalLane="-43546935#3_1" arrivalPos="13.61" arrivalSpeed="8.63" duration="227.00" routeLength="2115.99" waitingTime="34.00" waitingCount="1" stopTime="0.00" timeLoss="63.27" rerouteNo="0" devices="tripinfo_veh22" vType="passenger" speedFactor="1.12" vaporized=""/>