<?xml version="1.0" encoding="UTF-8"?>

<!-- generated on 2025-06-15 22:36:34 by Eclipse SUMO sumo Version 1.22.0
<sumoConfiguration xmlns:xsi="http://www.w3.org/2001/XMLSchema-instance" xsi:noNamespaceSchemaLocation="http://sumo.dlr.de/xsd/sumoConfiguration.xsd">

    <input>
        <net-file value="E:/licenta/oras-mediu/2025-06-05-11-45-23\osm.net.xml"/>
        <route-files value="E:/licenta/oras-mediu/2025-06-05-11-45-23\full.rou.xml,E:/licenta/oras-mediu/2025-06-05-11-45-23\ ped.rou.xml,E:/licenta/oras-mediu/2025-06-05-11-45-23\ truck.rou.xml"/>
        <additional-files value="E:/licenta/oras-mediu/2025-06-05-11-45-23\osm.poly.xml,E:/licenta/oras-mediu/2025-06-05-11-45-23\ vtypes.xml"/>
    </input>

    <output>
        <summary-output value="E:/licenta/oras-mediu/2025-06-05-11-45-23\summary.xml"/>
        <tripinfo-output value="E:/licenta/oras-mediu/2025-06-05-11-45-23\tripinfo.xml"/>
    </output>

    <processing>
        <ignore-route-errors value="true"/>
        <tls.actuated.jam-threshold value="30"/>
    </processing>

    <routing>
        <device.rerouting.adaptation-steps value="18"/>
        <device.rerouting.adaptation-interval value="10"/>
    </routing>

    <report>
        <verbose value="true"/>
        <duration-log.statistics value="true"/>
        <no-step-log value="true"/>
    </report>

    <traci_server>
        <remote-port value="50686"/>
    </traci_server>

    <gui_only>
        <gui-settings-file value="E:/licenta/oras-mediu/2025-06-05-11-45-23\osm.view.xml"/>
    </gui_only>

</sumoConfiguration>
-->

<tripinfos xmlns:xsi="http://www.w3.org/2001/XMLSchema-instance" xsi:noNamespaceSchemaLocation="http://sumo.dlr.de/xsd/tripinfo_file.xsd">
    <personinfo id="ped5" depart="25.00" type="DEFAULT_PEDTYPE" speedFactor="1.11" duration="32.00" waitingTime="0.00" timeLoss="3.68" traveltime="32.00">
        <walk depart="25.00" departPos="0.00" arrival="57.00" arrivalPos="4.00" duration="32.00" routeLength="43.79" timeLoss="3.68" maxSpeed="1.55"/>
    </personinfo>
    <tripinfo id="veh23" depart="12.00" departLane="40345956#3_1" departPos="1.32" departSpeed="0.00" departDelay="0.04" arrival="62.00" arrivalLane="48778496_1" arrivalPos="81.85" arrivalSpeed="8.54" duration="50.00" routeLength="484.27" waitingTime="0.00" waitingCount="0" stopTime="0.00" timeLoss="12.39" rerouteNo="0" devices="tripinfo_veh23" vType="passenger" speedFactor="1.15" vaporized=""/>
    <tripinfo id="veh33" depart="18.00" departLane="1136301812#0_1" departPos="20.90" departSpeed="0.00" departDelay="0.84" arrival="91.00" arrivalLane="48778449#1_1" arrivalPos="70.68" arrivalSpeed="13.29" duration="73.00" routeLength="578.23" waitingTime="3.00" waitingCount="1" stopTime="0.00" timeLoss="27.21" rerouteNo="0" devices="tripinfo_veh33" vType="passenger" speedFactor="1.04" vaporized=""/>
    <tripinfo id="veh119" depart="62.00" departLane="1136279385_1" departPos="15.98" departSpeed="0.00" departDelay="0.12" arrival="91.00" arrivalLane="-40314583#7_1" arrivalPos="24.38" arrivalSpeed="10.45" duration="29.00" routeLength="229.76" waitingTime="0.00" waitingCount="0" stopTime="0.00" timeLoss="10.00" rerouteNo="0" devices="tripinfo_veh119" vType="passenger" speedFactor="1.21" vaporized=""/>
    <tripinfo id="veh7" depart="4.00" departLane="1136119743#0_1" departPos="16.47" departSpeed="0.00" departDelay="0.36" arrival="100.00" arrivalLane="222605084#6_0" arrivalPos="0.20" arrivalSpeed="5.44" duration="96.00" routeLength="683.99" waitingTime="1.00" waitingCount="1" stopTime="0.00" timeLoss="20.52" rerouteNo="0" devices="tripinfo_veh7" vType="passenger" speedFactor="1.12" vaporized=""/>
    <tripinfo id="veh32" depart="17.00" departLane="40330575#0_1" departPos="5.70" departSpeed="0.00" departDelay="0.36" arrival="101.00" arrivalLane="222605087#4_1" arrivalPos="52.91" arrivalSpeed="5.39" duration="84.00" routeLength="656.73" waitingTime="0.00" waitingCount="0" stopTime="0.00" timeLoss="14.04" rerouteNo="0" devices="tripinfo_veh32" vType="passenger" speedFactor="1.07" vaporized=""/>
    <tripinfo id="veh8" depart="5.00" departLane="-40236153#0_1" departPos="18.04" departSpeed="0.00" departDelay="0.84" arrival="106.00" arrivalLane="-250295513_1" arrivalPos="43.99" arrivalSpeed="12.08" duration="101.00" routeLength="1042.57" waitingTime="0.00" waitingCount="0" stopTime="0.00" timeLoss="15.34" rerouteNo="0" devices="tripinfo_veh8" vType="passenger" speedFactor="0.90" vaporized=""/>
    <tripinfo id="veh43" depart="23.00" departLane="40236220#1_1" departPos="12.37" departSpeed="0.00" departDelay="0.64" arrival="106.00" arrivalLane="-43573478_1" arrivalPos="180.41" arrivalSpeed="11.45" duration="83.00" routeLength="773.58" waitingTime="0.00" waitingCount="0" stopTime="0.00" timeLoss="17.41" rerouteNo="0" devices="tripinfo_veh43" vType="motorcycle" speedFactor="0.90" vaporized=""/>
    <tripinfo id="veh116" depart="61.00" departLane="43546688#1_1" departPos="10.12" departSpeed="0.00" departDelay="0.68" arrival="116.00" arrivalLane="-40236203#3_1" arrivalPos="78.82" arrivalSpeed="15.30" duration="55.00" routeLength="452.19" waitingTime="7.00" waitingCount="1" stopTime="0.00" timeLoss="23.01" rerouteNo="0" devices="tripinfo_veh116" vType="passenger" speedFactor="1.11" vaporized=""/>
    <tripinfo id="veh17" depart="9.00" departLane="-40236228#1_1" departPos="10.22" departSpeed="0.00" departDelay="0.16" arrival="118.00" arrivalLane="-250295382_1" arrivalPos="106.55" arrivalSpeed="13.97" duration="109.00" routeLength="1101.44" waitingTime="0.00" waitingCount="0" stopTime="0.00" timeLoss="27.05" rerouteNo="0" devices="tripinfo_veh17" vType="passenger" speedFactor="1.01" vaporized=""/>
    <tripinfo id="veh131" depart="69.00" departLane="-1054663943_1" departPos="9.69" departSpeed="0.00" departDelay="0.88" arrival="126.00" arrivalLane="-48736613#4_1" arrivalPos="22.23" arrivalSpeed="10.40" duration="57.00" routeLength="495.14" waitingTime="2.00" waitingCount="1" stopTime="0.00" timeLoss="13.07" rerouteNo="0" devices="tripinfo_veh131" vType="passenger" speedFactor="0.88" vaporized=""/>
    <tripinfo id="veh105" depart="55.00" departLane="48778480#5_1" departPos="192.80" departSpeed="0.00" departDelay="0.40" arrival="128.00" arrivalLane="48736640#0_1" arrivalPos="55.87" arrivalSpeed="14.93" duration="73.00" routeLength="819.20" waitingTime="0.00" waitingCount="0" stopTime="0.00" timeLoss="17.85" rerouteNo="0" devices="tripinfo_veh105" vType="passenger" speedFactor="1.12" vaporized=""/>
    <tripinfo id="veh164" depart="86.00" departLane="-48778476_1" departPos="44.38" departSpeed="0.00" departDelay="0.72" arrival="131.00" arrivalLane="40305706#0_1" arrivalPos="32.26" arrivalSpeed="12.63" duration="45.00" routeLength="448.58" waitingTime="0.00" waitingCount="0" stopTime="0.00" timeLoss="11.37" rerouteNo="0" devices="tripinfo_veh164" vType="passenger" speedFactor="1.03" vaporized=""/>
    <tripinfo id="veh132" depart="69.00" departLane="-43544001#5_1" departPos="32.45" departSpeed="0.00" departDelay="0.36" arrival="136.00" arrivalLane="-43544197#5_1" arrivalPos="40.70" arrivalSpeed="9.93" duration="67.00" routeLength="605.96" waitingTime="0.00" waitingCount="0" stopTime="0.00" timeLoss="9.65" rerouteNo="0" devices="tripinfo_veh132" vType="passenger" speedFactor="0.80" vaporized=""/>
    <tripinfo id="veh100" depart="52.00" departLane="-40330557#0_1" departPos="7.95" departSpeed="0.00" departDelay="0.00" arrival="137.00" arrivalLane="859734514#1_0" arrivalPos="56.51" arrivalSpeed="5.20" duration="85.00" routeLength="857.58" waitingTime="0.00" waitingCount="0" stopTime="0.00" timeLoss="12.26" rerouteNo="0" devices="tripinfo_veh100" vType="passenger" speedFactor="1.03" vaporized=""/>
    <tripinfo id="veh81" depart="43.00" departLane="264868325_1" departPos="43.55" departSpeed="0.00" departDelay="0.88" arrival="141.00" arrivalLane="-43546088_1" arrivalPos="225.01" arrivalSpeed="14.13" duration="98.00" routeLength="1080.09" waitingTime="0.00" waitingCount="0" stopTime="0.00" timeLoss="20.22" rerouteNo="0" devices="tripinfo_veh81" vType="passenger" speedFactor="1.06" vaporized=""/>
    <tripinfo id="veh113" depart="60.00" departLane="40236164_1" departPos="144.56" departSpeed="0.00" departDelay="1.24" arrival="143.00" arrivalLane="-48778454#1_1" arrivalPos="94.52" arrivalSpeed="13.58" duration="83.00" routeLength="753.30" waitingTime="0.00" waitingCount="0" stopTime="0.00" timeLoss="22.49" rerouteNo="0" devices="tripinfo_veh113" vType="emergency" speedFactor="1.00" vaporized=""/>
    <tripinfo id="veh44" depart="24.00" departLane="-43573547#0_1" departPos="41.80" departSpeed="0.00" departDelay="1.12" arrival="145.00" arrivalLane="43544184#1_1" arrivalPos="0.22" arrivalSpeed="13.24" duration="121.00" routeLength="1149.14" waitingTime="13.00" waitingCount="1" stopTime="0.00" timeLoss="34.02" rerouteNo="0" devices="tripinfo_veh44" vType="delivery" speedFactor="0.98" vaporized=""/>
    <tripinfo id="veh65" depart="34.00" departLane="40236203#3_1" departPos="18.79" departSpeed="0.00" departDelay="0.20" arrival="148.00" arrivalLane="-43546039#3_1" arrivalPos="47.87" arrivalSpeed="14.20" duration="114.00" routeLength="1344.88" waitingTime="0.00" waitingCount="0" stopTime="0.00" timeLoss="21.41" rerouteNo="0" devices="tripinfo_veh65" vType="passenger" speedFactor="1.08" vaporized=""/>
    <tripinfo id="veh98" depart="51.00" departLane="859728208#0_0" departPos="23.46" departSpeed="0.00" departDelay="0.04" arrival="153.00" arrivalLane="-1205541342_1" arrivalPos="22.37" arrivalSpeed="4.53" duration="102.00" routeLength="721.25" waitingTime="0.00" waitingCount="0" stopTime="0.00" timeLoss="23.72" rerouteNo="0" devices="tripinfo_veh98" vType="motorcycle" speedFactor="0.98" vaporized=""/>
    <tripinfo id="veh183" depart="96.00" departLane="-48778524#1_1" departPos="13.06" departSpeed="0.00" departDelay="0.84" arrival="153.00" arrivalLane="-383582512#0_0" arrivalPos="35.67" arrivalSpeed="4.62" duration="57.00" routeLength="482.61" waitingTime="0.00" waitingCount="0" stopTime="0.00" timeLoss="9.23" rerouteNo="0" devices="tripinfo_veh183" vType="passenger" speedFactor="0.92" vaporized=""/>
    <tripinfo id="veh28" depart="15.00" departLane="-984521613_0" departPos="30.45" departSpeed="0.00" departDelay="0.44" arrival="154.00" arrivalLane="984508804_0" arrivalPos="26.89" arrivalSpeed="4.04" duration="139.00" routeLength="1310.05" waitingTime="6.00" waitingCount="1" stopTime="0.00" timeLoss="28.38" rerouteNo="0" devices="tripinfo_veh28" vType="passenger" speedFactor="0.94" vaporized=""/>
    <tripinfo id="veh112" depart="59.00" departLane="43546935#2_1" departPos="40.26" departSpeed="0.00" departDelay="0.76" arrival="159.00" arrivalLane="-43546935#2_1" arrivalPos="44.28" arrivalSpeed="13.13" duration="100.00" routeLength="901.79" waitingTime="3.00" waitingCount="1" stopTime="0.00" timeLoss="30.87" rerouteNo="0" devices="tripinfo_veh112" vType="passenger" speedFactor="1.01" vaporized=""/>
    <tripinfo id="veh21" depart="11.00" departLane="E9_2" departPos="5.46" departSpeed="0.00" departDelay="0.08" arrival="163.00" arrivalLane="-859728208#1_0" arrivalPos="0.20" arrivalSpeed="4.86" duration="152.00" routeLength="776.09" waitingTime="47.00" waitingCount="3" stopTime="0.00" timeLoss="73.46" rerouteNo="0" devices="tripinfo_veh21" vType="passenger" speedFactor="0.89" vaporized=""/>
    <tripinfo id="veh117" depart="61.00" departLane="-43546519#2_1" departPos="4.63" departSpeed="0.00" departDelay="0.16" arrival="164.00" arrivalLane="-48778505#2_1" arrivalPos="58.27" arrivalSpeed="13.81" duration="103.00" routeLength="1006.99" waitingTime="6.00" waitingCount="1" stopTime="0.00" timeLoss="26.97" rerouteNo="0" devices="tripinfo_veh117" vType="delivery" speedFactor="1.01" vaporized=""/>
    <tripinfo id="veh40" depart="21.00" departLane="-43573547#0_1" departPos="45.00" departSpeed="0.00" departDelay="0.20" arrival="169.00" arrivalLane="1250915720#2_1" arrivalPos="2.90" arrivalSpeed="4.83" duration="148.00" routeLength="1302.59" waitingTime="17.00" waitingCount="1" stopTime="0.00" timeLoss="38.05" rerouteNo="0" devices="tripinfo_veh40" vType="passenger" speedFactor="1.05" vaporized=""/>
    <tripinfo id="veh62" depart="33.00" departLane="-1136289992_1" departPos="1.72" departSpeed="0.00" departDelay="0.76" arrival="173.00" arrivalLane="-258551284#1_1" arrivalPos="135.26" arrivalSpeed="14.27" duration="140.00" routeLength="1561.72" waitingTime="4.00" waitingCount="1" stopTime="0.00" timeLoss="30.60" rerouteNo="0" devices="tripinfo_veh62" vType="passenger" speedFactor="1.09" vaporized=""/>
    <personinfo id="ped20" depart="100.00" type="DEFAULT_PEDTYPE" speedFactor="1.03" duration="74.00" waitingTime="0.00" timeLoss="8.13" traveltime="74.00">
        <walk depart="100.00" departPos="0.00" arrival="174.00" arrivalPos="6.55" duration="74.00" routeLength="94.10" timeLoss="8.13" maxSpeed="1.43"/>
    </personinfo>
    <tripinfo id="veh138" depart="72.00" departLane="-1276522491_0" departPos="80.69" departSpeed="0.00" departDelay="0.24" arrival="174.00" arrivalLane="48736603#1_1" arrivalPos="122.42" arrivalSpeed="11.74" duration="102.00" routeLength="1052.77" waitingTime="0.00" waitingCount="0" stopTime="0.00" timeLoss="9.90" rerouteNo="0" devices="tripinfo_veh138" vType="passenger" speedFactor="0.87" vaporized=""/>
    <tripinfo id="veh35" depart="19.00" departLane="222605087#3_1" departPos="20.05" departSpeed="0.00" departDelay="0.80" arrival="175.00" arrivalLane="43573573#2_1" arrivalPos="202.87" arrivalSpeed="13.92" duration="156.00" routeLength="1629.44" waitingTime="0.00" waitingCount="0" stopTime="0.00" timeLoss="21.34" rerouteNo="0" devices="tripinfo_veh35" vType="passenger" speedFactor="1.09" vaporized=""/>
    <tripinfo id="veh104" depart="55.00" departLane="48778485#0_1" departPos="10.64" departSpeed="0.00" departDelay="0.92" arrival="176.00" arrivalLane="984508802_0" arrivalPos="57.38" arrivalSpeed="4.97" duration="121.00" routeLength="1154.68" waitingTime="1.00" waitingCount="1" stopTime="0.00" timeLoss="22.78" rerouteNo="0" devices="tripinfo_veh104" vType="passenger" speedFactor="1.00" vaporized=""/>
    <tripinfo id="veh227" depart="119.00" departLane="43546935#2_1" departPos="27.16" departSpeed="0.00" departDelay="0.96" arrival="176.00" arrivalLane="1136289987_1" arrivalPos="68.55" arrivalSpeed="7.26" duration="57.00" routeLength="494.31" waitingTime="0.00" waitingCount="0" stopTime="0.00" timeLoss="13.15" rerouteNo="0" devices="tripinfo_veh227" vType="passenger" speedFactor="0.97" vaporized=""/>
    <tripinfo id="veh134" depart="70.00" departLane="40266909#0_1" departPos="55.48" departSpeed="0.00" departDelay="0.32" arrival="178.00" arrivalLane="-859732802#0_0" arrivalPos="5.60" arrivalSpeed="4.34" duration="108.00" routeLength="1057.26" waitingTime="2.00" waitingCount="1" stopTime="0.00" timeLoss="21.10" rerouteNo="0" devices="tripinfo_veh134" vType="passenger" speedFactor="0.97" vaporized=""/>
    <tripinfo id="veh274" depart="143.00" departLane="-48778494#1_1" departPos="8.63" departSpeed="0.00" departDelay="0.52" arrival="178.00" arrivalLane="945794109_1" arrivalPos="21.82" arrivalSpeed="8.79" duration="35.00" routeLength="349.83" waitingTime="0.00" waitingCount="0" stopTime="0.00" timeLoss="10.92" rerouteNo="0" devices="tripinfo_veh274" vType="passenger" speedFactor="1.16" vaporized=""/>
    <tripinfo id="veh25" depart="13.00" departLane="43546460#6_1" departPos="13.26" departSpeed="0.00" departDelay="0.00" arrival="182.00" arrivalLane="48778512_1" arrivalPos="67.72" arrivalSpeed="7.21" duration="169.00" routeLength="1994.84" waitingTime="0.00" waitingCount="0" stopTime="0.00" timeLoss="16.25" rerouteNo="0" devices="tripinfo_veh25" vType="passenger" speedFactor="0.99" vaporized=""/>
    <tripinfo id="veh136" depart="71.00" departLane="-859734514#1_0" departPos="22.58" departSpeed="0.00" departDelay="0.28" arrival="184.00" arrivalLane="1136283361_0" arrivalPos="47.88" arrivalSpeed="6.26" duration="113.00" routeLength="1043.11" waitingTime="0.00" waitingCount="0" stopTime="0.00" timeLoss="26.71" rerouteNo="0" devices="tripinfo_veh136" vType="passenger" speedFactor="1.13" vaporized=""/>
    <tripinfo id="veh195" depart="102.00" departLane="25379984#0_2" departPos="62.60" departSpeed="0.00" departDelay="0.60" arrival="184.00" arrivalLane="-258551281_1" arrivalPos="67.94" arrivalSpeed="13.74" duration="82.00" routeLength="249.24" waitingTime="50.00" waitingCount="1" stopTime="0.00" timeLoss="62.39" rerouteNo="0" devices="tripinfo_veh195" vType="emergency" speedFactor="1.00" vaporized=""/>
    <tripinfo id="veh181" depart="95.00" departLane="-E27_1" departPos="11.98" departSpeed="0.00" departDelay="0.88" arrival="187.00" arrivalLane="143207982#1_1" arrivalPos="37.78" arrivalSpeed="11.65" duration="92.00" routeLength="500.68" waitingTime="42.00" waitingCount="1" stopTime="0.00" timeLoss="55.16" rerouteNo="0" devices="tripinfo_veh181" vType="motorcycle" speedFactor="1.00" vaporized=""/>
    <tripinfo id="veh158" depart="83.00" departLane="647347140#1_1" departPos="7.98" departSpeed="0.00" departDelay="0.84" arrival="192.00" arrivalLane="258551321_1" arrivalPos="124.63" arrivalSpeed="15.73" duration="109.00" routeLength="1172.76" waitingTime="0.00" waitingCount="0" stopTime="0.00" timeLoss="33.69" rerouteNo="0" devices="tripinfo_veh158" vType="passenger" speedFactor="1.15" vaporized=""/>
    <tripinfo id="veh0" depart="0.00" departLane="-250295384_1" departPos="110.65" departSpeed="0.00" departDelay="0.00" arrival="194.00" arrivalLane="48778511_1" arrivalPos="75.86" arrivalSpeed="13.40" duration="194.00" routeLength="2115.58" waitingTime="0.00" waitingCount="0" stopTime="0.00" timeLoss="32.94" rerouteNo="0" devices="tripinfo_veh0" vType="motorcycle" speedFactor="0.98" vaporized=""/>
    <tripinfo id="veh75" depart="39.00" departLane="945793491#1_1" departPos="39.11" departSpeed="0.00" departDelay="0.00" arrival="194.00" arrivalLane="48778508#1_1" arrivalPos="98.38" arrivalSpeed="11.74" duration="155.00" routeLength="1176.72" waitingTime="0.00" waitingCount="0" stopTime="0.00" timeLoss="18.80" rerouteNo="0" devices="tripinfo_veh75" vType="passenger" speedFactor="0.86" vaporized=""/>
    <tripinfo id="veh53" depart="28.00" departLane="-43544001#9_1" departPos="170.75" departSpeed="0.00" departDelay="0.44" arrival="195.00" arrivalLane="996489799#0_0" arrivalPos="0.20" arrivalSpeed="4.23" duration="167.00" routeLength="1516.65" waitingTime="21.00" waitingCount="1" stopTime="0.00" timeLoss="47.26" rerouteNo="0" devices="tripinfo_veh53" vType="passenger" speedFactor="0.95" vaporized=""/>
    <tripinfo id="veh102" depart="54.00" departLane="-859734514#1_0" departPos="40.38" departSpeed="0.00" departDelay="0.96" arrival="195.00" arrivalLane="945793491#1_1" arrivalPos="67.96" arrivalSpeed="3.71" duration="141.00" routeLength="1003.32" waitingTime="0.00" waitingCount="0" stopTime="0.00" timeLoss="17.26" rerouteNo="0" devices="tripinfo_veh102" vType="passenger" speedFactor="0.89" vaporized=""/>
    <tripinfo id="veh196" depart="102.00" departLane="-48778514#1_1" departPos="41.83" departSpeed="0.00" departDelay="0.08" arrival="198.00" arrivalLane="-264868325_1" arrivalPos="96.14" arrivalSpeed="14.19" duration="96.00" routeLength="740.28" waitingTime="19.00" waitingCount="1" stopTime="0.00" timeLoss="44.47" rerouteNo="0" devices="tripinfo_veh196" vType="passenger" speedFactor="1.10" vaporized=""/>
    <tripinfo id="veh89" depart="47.00" departLane="43573573#4_1" departPos="19.24" departSpeed="0.00" departDelay="0.72" arrival="199.00" arrivalLane="222605084#9_1" arrivalPos="2.21" arrivalSpeed="6.51" duration="152.00" routeLength="1770.09" waitingTime="3.00" waitingCount="1" stopTime="0.00" timeLoss="31.52" rerouteNo="0" devices="tripinfo_veh89" vType="passenger" speedFactor="1.25" vaporized=""/>
    <tripinfo id="veh160" depart="84.00" departLane="353939570#5_1" departPos="66.39" departSpeed="0.00" departDelay="0.80" arrival="199.00" arrivalLane="E41_1" arrivalPos="211.17" arrivalSpeed="12.86" duration="115.00" routeLength="1088.34" waitingTime="4.00" waitingCount="1" stopTime="0.00" timeLoss="22.43" rerouteNo="0" devices="tripinfo_veh160" vType="delivery" speedFactor="0.94" vaporized=""/>
    <tripinfo id="veh10" depart="6.00" departLane="-48736656#2_1" departPos="53.63" departSpeed="0.00" departDelay="0.80" arrival="204.00" arrivalLane="-671606411_1" arrivalPos="183.61" arrivalSpeed="7.26" duration="198.00" routeLength="974.66" waitingTime="92.00" waitingCount="4" stopTime="0.00" timeLoss="125.07" rerouteNo="0" devices="tripinfo_veh10" vType="passenger" speedFactor="1.04" vaporized=""/>
    <tripinfo id="veh67" depart="35.00" departLane="-994065252_0" departPos="5.53" departSpeed="0.00" departDelay="0.16" arrival="205.00" arrivalLane="40265777#1_1" arrivalPos="65.39" arrivalSpeed="13.43" duration="170.00" routeLength="1771.99" waitingTime="0.00" waitingCount="0" stopTime="0.00" timeLoss="18.14" rerouteNo="0" devices="tripinfo_veh67" vType="passenger" speedFactor="0.98" vaporized=""/>
    <tripinfo id="veh145" depart="76.00" departLane="996984132_0" departPos="58.40" departSpeed="0.00" departDelay="0.60" arrival="205.00" arrivalLane="-48797772_1" arrivalPos="103.62" arrivalSpeed="14.20" duration="129.00" routeLength="1482.82" waitingTime="0.00" waitingCount="0" stopTime="0.00" timeLoss="21.66" rerouteNo="0" devices="tripinfo_veh145" vType="motorcycle" speedFactor="1.08" vaporized=""/>
    <tripinfo id="veh123" depart="64.00" departLane="-40236203#3_1" departPos="31.78" departSpeed="0.00" departDelay="0.04" arrival="206.00" arrivalLane="43544624#0_1" arrivalPos="295.29" arrivalSpeed="12.93" duration="142.00" routeLength="1623.60" waitingTime="0.00" waitingCount="0" stopTime="0.00" timeLoss="15.23" rerouteNo="0" devices="tripinfo_veh123" vType="passenger" speedFactor="0.94" vaporized=""/>
    <personinfo id="ped23" depart="115.00" type="DEFAULT_PEDTYPE" speedFactor="1.00" duration="92.00" waitingTime="0.00" timeLoss="10.51" traveltime="92.00">
        <walk depart="115.00" departPos="0.00" arrival="207.00" arrivalPos="79.72" duration="92.00" routeLength="113.38" timeLoss="10.51" maxSpeed="1.39"/>
    </personinfo>
    <tripinfo id="veh142" depart="78.00" departLane="-48778441#2_1" departPos="8.42" departSpeed="0.00" departDelay="4.16" arrival="212.00" arrivalLane="40269009#2_1" arrivalPos="65.05" arrivalSpeed="13.57" duration="134.00" routeLength="1313.04" waitingTime="6.00" waitingCount="1" stopTime="0.00" timeLoss="35.10" rerouteNo="0" devices="tripinfo_veh142" vType="motorcycle" speedFactor="1.02" vaporized=""/>
    <tripinfo id="veh91" depart="48.00" departLane="-E24_2" departPos="44.88" departSpeed="0.00" departDelay="0.68" arrival="213.00" arrivalLane="48778443#0_1" arrivalPos="2.86" arrivalSpeed="7.21" duration="165.00" routeLength="1212.23" waitingTime="24.00" waitingCount="1" stopTime="0.00" timeLoss="57.94" rerouteNo="0" devices="tripinfo_veh91" vType="delivery" speedFactor="1.01" vaporized=""/>
    <tripinfo id="veh38" depart="20.00" departLane="-1136119743#1_1" departPos="13.92" departSpeed="0.00" departDelay="0.24" arrival="220.00" arrivalLane="354252043_1" arrivalPos="59.61" arrivalSpeed="14.62" duration="200.00" routeLength="2180.71" waitingTime="0.00" waitingCount="0" stopTime="0.00" timeLoss="33.69" rerouteNo="0" devices="tripinfo_veh38" vType="passenger" speedFactor="1.06" vaporized=""/>
    <tripinfo id="veh24" depart="13.00" departLane="-1136289992_1" departPos="4.25" departSpeed="0.00" departDelay="0.52" arrival="224.00" arrivalLane="-1135772296#0_0" arrivalPos="22.09" arrivalSpeed="6.01" duration="211.00" routeLength="2383.68" waitingTime="0.00" waitingCount="0" stopTime="0.00" timeLoss="41.98" rerouteNo="0" devices="tripinfo_veh24" vType="passenger" speedFactor="1.12" vaporized=""/>
    <tripinfo id="veh45" depart="24.00" departLane="-648182739#1_1" departPos="189.85" departSpeed="0.00" departDelay="0.60" arrival="224.00" arrivalLane="48778441#3_1" arrivalPos="108.66" arrivalSpeed="13.40" duration="200.00" routeLength="2323.71" waitingTime="1.00" waitingCount="1" stopTime="0.00" timeLoss="32.13" rerouteNo="0" devices="tripinfo_veh45" vType="passenger" speedFactor="1.02" vaporized=""/>
    <tripinfo id="veh78" depart="41.00" departLane="383582503_0" departPos="31.04" departSpeed="0.00" departDelay="0.44" arrival="224.00" arrivalLane="-383582514_1" arrivalPos="205.28" arrivalSpeed="9.07" duration="183.00" routeLength="1640.86" waitingTime="31.00" waitingCount="1" stopTime="0.00" timeLoss="55.91" rerouteNo="0" devices="tripinfo_veh78" vType="passenger" speedFactor="1.10" vaporized=""/>
    <tripinfo id="veh26" depart="14.00" departLane="40236232#0_1" departPos="23.65" departSpeed="0.00" departDelay="0.48" arrival="225.00" arrivalLane="-945793491#1_1" arrivalPos="61.86" arrivalSpeed="5.12" duration="211.00" routeLength="1645.24" waitingTime="7.00" waitingCount="3" stopTime="0.00" timeLoss="48.49" rerouteNo="0" devices="tripinfo_veh26" vType="passenger" speedFactor="0.97" vaporized=""/>
    <tripinfo id="veh2" depart="2.00" departLane="48736633_1" departPos="145.96" departSpeed="0.00" departDelay="0.96" arrival="227.00" arrivalLane="1017995181_1" arrivalPos="15.20" arrivalSpeed="10.74" duration="225.00" routeLength="1215.06" waitingTime="120.00" waitingCount="1" stopTime="0.00" timeLoss="140.92" rerouteNo="0" devices="tripinfo_veh2" vType="passenger" speedFactor="1.08" vaporized=""/>
    <tripinfo id="veh168" depart="88.00" departLane="-1136283379#1_1" departPos="22.75" departSpeed="0.00" departDelay="0.64" arrival="227.00" arrivalLane="-353939570#0_1" arrivalPos="178.43" arrivalSpeed="13.62" duration="139.00" routeLength="1650.79" waitingTime="0.00" waitingCount="0" stopTime="0.00" timeLoss="15.00" rerouteNo="0" devices="tripinfo_veh168" vType="emergency" speedFactor="1.00" vaporized=""/>
    <tripinfo id="veh259" depart="135.00" departLane="256684296_0" departPos="19.17" departSpeed="0.00" departDelay="0.32" arrival="227.00" arrivalLane="-530103975#1_1" arrivalPos="17.63" arrivalSpeed="13.74" duration="92.00" routeLength="742.02" waitingTime="0.00" waitingCount="0" stopTime="0.00" timeLoss="18.50" rerouteNo="0" devices="tripinfo_veh259" vType="emergency" speedFactor="1.00" vaporized=""/>
    <tripinfo id="veh57" depart="30.00" departLane="-1136289992_1" departPos="7.25" departSpeed="0.00" departDelay="0.36" arrival="229.00" arrivalLane="-250295379_1" arrivalPos="126.33" arrivalSpeed="14.13" duration="199.00" routeLength="2444.37" waitingTime="0.00" waitingCount="0" stopTime="0.00" timeLoss="26.77" rerouteNo="0" devices="tripinfo_veh57" vType="passenger" speedFactor="1.06" vaporized=""/>
    <tripinfo id="veh257" depart="135.00" departLane="43547296#1_1" departPos="6.75" departSpeed="0.00" departDelay="1.36" arrival="229.00" arrivalLane="-383582513_0" arrivalPos="62.69" arrivalSpeed="4.82" duration="94.00" routeLength="937.87" waitingTime="0.00" waitingCount="0" stopTime="0.00" timeLoss="22.45" rerouteNo="0" devices="tripinfo_veh257" vType="passenger" speedFactor="1.09" vaporized=""/>
    <tripinfo id="veh228" depart="119.00" departLane="-48778503#1_1" departPos="32.79" departSpeed="0.00" departDelay="0.44" arrival="231.00" arrivalLane="43544138#6_1" arrivalPos="39.12" arrivalSpeed="14.58" duration="112.00" routeLength="1199.15" waitingTime="0.00" waitingCount="0" stopTime="0.00" timeLoss="25.54" rerouteNo="0" devices="tripinfo_veh228" vType="passenger" speedFactor="1.05" vaporized=""/>
    <tripinfo id="veh76" depart="40.00" departLane="40329447_1" departPos="10.26" departSpeed="0.00" departDelay="0.48" arrival="234.00" arrivalLane="-996984133_1" arrivalPos="75.36" arrivalSpeed="6.95" duration="194.00" routeLength="1459.45" waitingTime="43.00" waitingCount="1" stopTime="0.00" timeLoss="67.39" rerouteNo="0" devices="tripinfo_veh76" vType="passenger" speedFactor="0.91" vaporized=""/>
    <tripinfo id="veh308" depart="161.00" departLane="43544184#2_1" departPos="24.28" departSpeed="0.00" departDelay="0.84" arrival="234.00" arrivalLane="48778431#7_1" arrivalPos="51.36" arrivalSpeed="14.75" duration="73.00" routeLength="901.53" waitingTime="0.00" waitingCount="0" stopTime="0.00" timeLoss="11.61" rerouteNo="0" devices="tripinfo_veh308" vType="passenger" speedFactor="1.08" vaporized=""/>
    <tripinfo id="veh110" depart="58.00" departLane="-383582854#2_0" departPos="26.02" departSpeed="0.00" departDelay="0.80" arrival="236.00" arrivalLane="-176279225#0_1" arrivalPos="70.91" arrivalSpeed="13.49" duration="178.00" routeLength="1104.33" waitingTime="73.00" waitingCount="1" stopTime="0.00" timeLoss="93.47" rerouteNo="0" devices="tripinfo_veh110" vType="passenger" speedFactor="1.04" vaporized=""/>
    <tripinfo id="veh3" depart="2.00" departLane="40330557#2_1" departPos="4.37" departSpeed="0.00" departDelay="0.44" arrival="238.00" arrivalLane="222608881#0_1" arrivalPos="168.96" arrivalSpeed="12.22" duration="236.00" routeLength="2531.91" waitingTime="0.00" waitingCount="0" stopTime="0.00" timeLoss="34.13" rerouteNo="0" devices="tripinfo_veh3" vType="passenger" speedFactor="0.94" vaporized=""/>
    <tripinfo id="veh114" depart="60.00" departLane="-48736656#2_1" departPos="1.99" departSpeed="0.00" departDelay="0.72" arrival="240.00" arrivalLane="1250915722#2_1" arrivalPos="3.43" arrivalSpeed="4.61" duration="180.00" routeLength="1640.47" waitingTime="7.00" waitingCount="1" stopTime="0.00" timeLoss="34.72" rerouteNo="0" devices="tripinfo_veh114" vType="passenger" speedFactor="1.02" vaporized=""/>
    <tripinfo id="veh197" depart="103.00" departLane="48788485#0_1" departPos="32.94" departSpeed="0.00" departDelay="0.56" arrival="240.00" arrivalLane="-647347140#1_1" arrivalPos="28.09" arrivalSpeed="13.27" duration="137.00" routeLength="1637.05" waitingTime="1.00" waitingCount="1" stopTime="0.00" timeLoss="17.61" rerouteNo="0" devices="tripinfo_veh197" vType="delivery" speedFactor="1.01" vaporized=""/>