<?xml version="1.0" encoding="UTF-8"?>

<!-- generated on 2025-06-15 21:43:25 by Eclipse SUMO sumo Version 1.22.0
<sumoConfiguration xmlns:xsi="http://www.w3.org/2001/XMLSchema-instance" xsi:noNamespaceSchemaLocation="http://sumo.dlr.de/xsd/sumoConfiguration.xsd">

    <input>
        <net-file value="E:/licenta/oras-mediu/2025-06-05-11-45-23\osm.net.xml"/>
        <route-files value="E:/licenta/oras-mediu/2025-06-05-11-45-23\full.rou.xml,E:/licenta/oras-mediu/2025-06-05-11-45-23\ ped.rou.xml,E:/licenta/oras-mediu/2025-06-05-11-45-23\ truck.rou.xml"/>
        <additional-files value="E:/licenta/oras-mediu/2025-06-05-11-45-23\osm.poly.xml,E:/licenta/oras-mediu/2025-06-05-11-45-23\ vtypes.xml"/>
    </input>

    <output>
        <summary-output value="E:/licenta/oras-mediu/2025-06-05-11-45-23\summary.xml"/>
        <tripinfo-output value="E:/licenta/oras-mediu/2025-06-05-11-45-23\tripinfo.xml"/>
    </output>

    <processing>
        <ignore-route-errors value="true"/>
        <tls.actuated.jam-threshold value="30"/>
    </processing>

    <routing>
        <device.rerouting.adaptation-steps value="18"/>
        <device.rerouting.adaptation-interval value="10"/>
    </routing>

    <report>
        <verbose value="true"/>
        <duration-log.statistics value="true"/>
        <no-step-log value="true"/>
    </report>

    <traci_server>
        <remote-port value="64497"/>
    </traci_server>

    <gui_only>
        <gui-settings-file value="E:/licenta/oras-mediu/2025-06-05-11-45-23\osm.view.xml"/>
    </gui_only>

</sumoConfiguration>
-->

<tripinfos xmlns:xsi="http://www.w3.org/2001/XMLSchema-instance" xsi:noNamespaceSchemaLocation="http://sumo.dlr.de/xsd/tripinfo_file.xsd">
    <personinfo id="ped4" depart="20.00" type="DEFAULT_PEDTYPE" speedFactor="0.95" duration="38.00" waitingTime="0.00" timeLoss="4.40" traveltime="38.00">
        <walk depart="20.00" departPos="0.00" arrival="58.00" arrivalPos="21.11" duration="38.00" routeLength="44.42" timeLoss="4.40" maxSpeed="1.32"/>
    </personinfo>
    <tripinfo id="veh19" depart="15.00" departLane="-859732803#1_0" departPos="21.21" departSpeed="0.00" departDelay="0.94" arrival="73.00" arrivalLane="984508805_0" arrivalPos="34.81" arrivalSpeed="6.16" duration="58.00" routeLength="487.37" waitingTime="0.00" waitingCount="0" stopTime="0.00" timeLoss="16.53" rerouteNo="0" devices="tripinfo_veh19" vType="passenger" speedFactor="1.13" vaporized=""/>
    <tripinfo id="veh27" depart="20.00" departLane="-48778475#2_1" departPos="12.58" departSpeed="0.00" departDelay="0.02" arrival="87.00" arrivalLane="1136301812#1_1" arrivalPos="9.56" arrivalSpeed="7.15" duration="67.00" routeLength="559.43" waitingTime="0.00" waitingCount="0" stopTime="0.00" timeLoss="18.69" rerouteNo="0" devices="tripinfo_veh27" vType="passenger" speedFactor="0.94" vaporized=""/>
    <personinfo id="ped10" depart="50.00" type="DEFAULT_PEDTYPE" speedFactor="0.93" duration="49.00" waitingTime="0.00" timeLoss="5.67" traveltime="49.00">
        <walk depart="50.00" departPos="0.00" arrival="99.00" arrivalPos="21.18" duration="49.00" routeLength="56.26" timeLoss="5.67" maxSpeed="1.30"/>
    </personinfo>
    <tripinfo id="veh86" depart="64.00" departLane="-945793490#4_1" departPos="29.92" departSpeed="0.00" departDelay="0.36" arrival="100.00" arrivalLane="-1251292610_1" arrivalPos="10.57" arrivalSpeed="4.32" duration="36.00" routeLength="149.14" waitingTime="0.00" waitingCount="0" stopTime="0.00" timeLoss="5.67" rerouteNo="0" devices="tripinfo_veh86" vType="passenger" speedFactor="0.89" vaporized=""/>
    <tripinfo id="veh67" depart="50.00" departLane="-33909936#4_1" departPos="4.12" departSpeed="0.00" departDelay="0.42" arrival="102.00" arrivalLane="-383582508#0_0" arrivalPos="10.60" arrivalSpeed="5.52" duration="52.00" routeLength="484.07" waitingTime="0.00" waitingCount="0" stopTime="0.00" timeLoss="8.69" rerouteNo="0" devices="tripinfo_veh67" vType="passenger" speedFactor="1.02" vaporized=""/>
    <tripinfo id="veh34" depart="26.00" departLane="-43546688#1_1" departPos="7.26" departSpeed="0.00" departDelay="0.84" arrival="112.00" arrivalLane="40306162#1_1" arrivalPos="38.73" arrivalSpeed="13.81" duration="86.00" routeLength="918.27" waitingTime="0.00" waitingCount="0" stopTime="0.00" timeLoss="19.54" rerouteNo="0" devices="tripinfo_veh34" vType="passenger" speedFactor="1.07" vaporized=""/>
    <tripinfo id="veh81" depart="60.00" departLane="-492965073#9_2" departPos="27.12" departSpeed="0.00" departDelay="0.06" arrival="114.00" arrivalLane="-48797765#2_1" arrivalPos="18.86" arrivalSpeed="11.28" duration="54.00" routeLength="572.01" waitingTime="0.00" waitingCount="0" stopTime="0.00" timeLoss="15.05" rerouteNo="0" devices="tripinfo_veh81" vType="passenger" speedFactor="1.14" vaporized=""/>
    <tripinfo id="veh24" depart="18.00" departLane="256684296_0" departPos="21.88" departSpeed="0.00" departDelay="0.24" arrival="135.00" arrivalLane="-48736638#2_1" arrivalPos="32.61" arrivalSpeed="12.78" duration="117.00" routeLength="603.21" waitingTime="32.00" waitingCount="1" stopTime="0.00" timeLoss="53.13" rerouteNo="0" devices="tripinfo_veh24" vType="passenger" speedFactor="0.97" vaporized=""/>
    <tripinfo id="veh70" depart="52.00" departLane="-354259933#0_1" departPos="10.60" departSpeed="0.00" departDelay="0.20" arrival="140.00" arrivalLane="1250915722#2_1" arrivalPos="3.43" arrivalSpeed="5.23" duration="88.00" routeLength="713.48" waitingTime="0.00" waitingCount="0" stopTime="0.00" timeLoss="10.28" rerouteNo="0" devices="tripinfo_veh70" vType="passenger" speedFactor="0.98" vaporized=""/>
    <tripinfo id="veh61" depart="46.00" departLane="-43573547#5_1" departPos="47.68" departSpeed="0.00" departDelay="0.86" arrival="153.00" arrivalLane="143207979#2_1" arrivalPos="38.81" arrivalSpeed="13.67" duration="107.00" routeLength="1199.48" waitingTime="0.00" waitingCount="0" stopTime="0.00" timeLoss="20.02" rerouteNo="0" devices="tripinfo_veh61" vType="passenger" speedFactor="1.06" vaporized=""/>
    <tripinfo id="veh6" depart="5.00" departLane="43546460#9_1" departPos="0.31" departSpeed="0.00" departDelay="0.56" arrival="156.00" arrivalLane="48736644_1" arrivalPos="151.25" arrivalSpeed="14.73" duration="151.00" routeLength="1937.52" waitingTime="0.00" waitingCount="0" stopTime="0.00" timeLoss="23.54" rerouteNo="0" devices="tripinfo_veh6" vType="passenger" speedFactor="1.12" vaporized=""/>
    <tripinfo id="veh39" depart="29.00" departLane="143207979#3_1" departPos="22.78" departSpeed="0.00" departDelay="0.14" arrival="158.00" arrivalLane="1137794254_2" arrivalPos="26.75" arrivalSpeed="12.44" duration="129.00" routeLength="1381.02" waitingTime="0.00" waitingCount="0" stopTime="0.00" timeLoss="19.60" rerouteNo="0" devices="tripinfo_veh39" vType="passenger" speedFactor="0.95" vaporized=""/>
    <tripinfo id="veh102" depart="76.00" departLane="48778474#0_1" departPos="3.64" departSpeed="0.00" departDelay="0.52" arrival="159.00" arrivalLane="984521613_0" arrivalPos="62.42" arrivalSpeed="4.90" duration="83.00" routeLength="456.36" waitingTime="8.00" waitingCount="3" stopTime="0.00" timeLoss="32.81" rerouteNo="0" devices="tripinfo_veh102" vType="passenger" speedFactor="1.03" vaporized=""/>
    <tripinfo id="veh140" depart="104.00" departLane="647762524_1" departPos="21.68" departSpeed="0.00" departDelay="0.40" arrival="161.00" arrivalLane="470210923#1_1" arrivalPos="159.45" arrivalSpeed="11.51" duration="57.00" routeLength="595.27" waitingTime="0.00" waitingCount="0" stopTime="0.00" timeLoss="7.43" rerouteNo="0" devices="tripinfo_veh140" vType="passenger" speedFactor="0.87" vaporized=""/>
    <tripinfo id="veh66" depart="49.00" departLane="-48778514#1_1" departPos="180.12" departSpeed="0.00" departDelay="0.16" arrival="164.00" arrivalLane="67736383_1" arrivalPos="44.81" arrivalSpeed="11.55" duration="115.00" routeLength="1153.73" waitingTime="0.00" waitingCount="0" stopTime="0.00" timeLoss="17.82" rerouteNo="0" devices="tripinfo_veh66" vType="passenger" speedFactor="0.90" vaporized=""/>
    <tripinfo id="veh42" depart="32.00" departLane="222605084#0_1" departPos="0.14" departSpeed="0.00" departDelay="0.92" arrival="165.00" arrivalLane="-996984132_0" arrivalPos="105.31" arrivalSpeed="6.05" duration="133.00" routeLength="1189.72" waitingTime="0.00" waitingCount="0" stopTime="0.00" timeLoss="23.31" rerouteNo="0" devices="tripinfo_veh42" vType="passenger" speedFactor="1.17" vaporized=""/>
    <tripinfo id="veh162" depart="120.00" departLane="-48778521#1_1" departPos="15.15" departSpeed="0.00" departDelay="0.12" arrival="169.00" arrivalLane="43544138#5_1" arrivalPos="39.45" arrivalSpeed="13.78" duration="49.00" routeLength="424.68" waitingTime="0.00" waitingCount="0" stopTime="0.00" timeLoss="10.15" rerouteNo="0" devices="tripinfo_veh162" vType="passenger" speedFactor="1.00" vaporized=""/>
    <personinfo id="ped12" depart="60.00" type="DEFAULT_PEDTYPE" speedFactor="0.89" duration="113.00" waitingTime="0.00" timeLoss="12.88" traveltime="113.00">
        <walk depart="60.00" departPos="0.00" arrival="173.00" arrivalPos="22.14" duration="113.00" routeLength="123.76" timeLoss="12.88" maxSpeed="1.24"/>
    </personinfo>
    <tripinfo id="veh129" depart="109.00" departLane="-222605087#2_1" departPos="1.10" departSpeed="0.00" departDelay="13.54" arrival="174.00" arrivalLane="-1251292611_1" arrivalPos="3.48" arrivalSpeed="6.55" duration="65.00" routeLength="348.07" waitingTime="1.00" waitingCount="1" stopTime="0.00" timeLoss="15.11" rerouteNo="0" devices="tripinfo_veh129" vType="passenger" speedFactor="1.18" vaporized=""/>
    <tripinfo id="veh26" depart="20.00" departLane="-48778446#1_1" departPos="9.50" departSpeed="0.00" departDelay="0.76" arrival="176.00" arrivalLane="-48736632#1_1" arrivalPos="49.82" arrivalSpeed="11.50" duration="156.00" routeLength="1248.03" waitingTime="38.00" waitingCount="3" stopTime="0.00" timeLoss="65.39" rerouteNo="0" devices="tripinfo_veh26" vType="motorcycle" speedFactor="1.02" vaporized=""/>
    <tripinfo id="veh145" depart="108.00" departLane="-48778453_1" departPos="14.48" departSpeed="0.00" departDelay="0.70" arrival="177.00" arrivalLane="40266909#0_1" arrivalPos="56.72" arrivalSpeed="12.89" duration="69.00" routeLength="677.60" waitingTime="0.00" waitingCount="0" stopTime="0.00" timeLoss="15.60" rerouteNo="0" devices="tripinfo_veh145" vType="passenger" speedFactor="0.96" vaporized=""/>
    <tripinfo id="veh5" depart="4.00" departLane="222609002#4_1" departPos="28.52" departSpeed="0.00" departDelay="0.30" arrival="180.00" arrivalLane="647998060#0_1" arrivalPos="61.50" arrivalSpeed="12.64" duration="176.00" routeLength="1697.02" waitingTime="0.00" waitingCount="0" stopTime="0.00" timeLoss="35.83" rerouteNo="0" devices="tripinfo_veh5" vType="passenger" speedFactor="0.92" vaporized=""/>
    <tripinfo id="veh10" depart="8.00" departLane="43546460#4_1" departPos="133.99" departSpeed="0.00" departDelay="0.60" arrival="181.00" arrivalLane="251916699#2.34_2" arrivalPos="28.37" arrivalSpeed="5.89" duration="173.00" routeLength="1790.95" waitingTime="12.00" waitingCount="2" stopTime="0.00" timeLoss="37.05" rerouteNo="0" devices="tripinfo_veh10" vType="passenger" speedFactor="1.04" vaporized=""/>
    <tripinfo id="veh13" depart="10.00" departLane="43546789#0_1" departPos="13.01" departSpeed="0.00" departDelay="0.38" arrival="186.00" arrivalLane="-40330575#0_1" arrivalPos="31.85" arrivalSpeed="13.51" duration="176.00" routeLength="2037.77" waitingTime="0.00" waitingCount="0" stopTime="0.00" timeLoss="26.78" rerouteNo="0" devices="tripinfo_veh13" vType="passenger" speedFactor="1.02" vaporized=""/>
    <tripinfo id="veh47" depart="35.00" departLane="647741479_1" departPos="59.63" departSpeed="0.00" departDelay="0.22" arrival="190.00" arrivalLane="-43547296#0_1" arrivalPos="163.38" arrivalSpeed="13.20" duration="155.00" routeLength="1604.83" waitingTime="5.00" waitingCount="1" stopTime="0.00" timeLoss="32.34" rerouteNo="0" devices="tripinfo_veh47" vType="delivery" speedFactor="0.98" vaporized=""/>
    <tripinfo id="veh84" depart="63.00" departLane="43573547#1_1" departPos="0.59" departSpeed="0.00" departDelay="0.84" arrival="190.00" arrivalLane="1250915720#0_1" arrivalPos="2.68" arrivalSpeed="4.75" duration="127.00" routeLength="1138.31" waitingTime="7.00" waitingCount="1" stopTime="0.00" timeLoss="27.14" rerouteNo="0" devices="tripinfo_veh84" vType="delivery" speedFactor="0.98" vaporized=""/>
    <tripinfo id="veh36" depart="27.00" departLane="859728205_0" departPos="9.42" departSpeed="0.00" departDelay="0.36" arrival="191.00" arrivalLane="-48797765#0_1" arrivalPos="17.81" arrivalSpeed="12.82" duration="164.00" routeLength="1182.63" waitingTime="40.00" waitingCount="2" stopTime="0.00" timeLoss="67.52" rerouteNo="0" devices="tripinfo_veh36" vType="emergency" speedFactor="1.00" vaporized=""/>
    <tripinfo id="veh104" depart="77.00" departLane="-43546519#2_1" departPos="6.21" departSpeed="0.00" departDelay="0.04" arrival="194.00" arrivalLane="-1135772296#0_0" arrivalPos="22.09" arrivalSpeed="3.81" duration="117.00" routeLength="1130.62" waitingTime="0.00" waitingCount="0" stopTime="0.00" timeLoss="16.00" rerouteNo="0" devices="tripinfo_veh104" vType="passenger" speedFactor="0.89" vaporized=""/>
    <tripinfo id="veh4" depart="3.00" departLane="859726677#0_1" departPos="30.64" departSpeed="0.00" departDelay="0.04" arrival="196.00" arrivalLane="1378376381_1" arrivalPos="160.13" arrivalSpeed="14.52" duration="193.00" routeLength="2480.35" waitingTime="0.00" waitingCount="0" stopTime="0.00" timeLoss="22.42" rerouteNo="0" devices="tripinfo_veh4" vType="passenger" speedFactor="1.09" vaporized=""/>
    <tripinfo id="veh130" depart="97.00" departLane="43544184#4_1" departPos="14.08" departSpeed="0.00" departDelay="0.80" arrival="200.00" arrivalLane="-354259933#3_1" arrivalPos="60.32" arrivalSpeed="13.32" duration="103.00" routeLength="1094.27" waitingTime="0.00" waitingCount="0" stopTime="0.00" timeLoss="20.15" rerouteNo="0" devices="tripinfo_veh130" vType="motorcycle" speedFactor="1.01" vaporized=""/>
    <tripinfo id="veh121" depart="90.00" departLane="-1136301811_1" departPos="9.22" departSpeed="0.00" departDelay="0.46" arrival="206.00" arrivalLane="48736640#1_1" arrivalPos="66.91" arrivalSpeed="14.65" duration="116.00" routeLength="1187.32" waitingTime="0.00" waitingCount="0" stopTime="0.00" timeLoss="29.35" rerouteNo="0" devices="tripinfo_veh121" vType="delivery" speedFactor="1.06" vaporized=""/>
    <tripinfo id="veh22" depart="17.00" departLane="40266907#1_1" departPos="5.65" departSpeed="0.00" departDelay="0.72" arrival="207.00" arrivalLane="40314583#5_1" arrivalPos="12.50" arrivalSpeed="10.68" duration="190.00" routeLength="2152.78" waitingTime="0.00" waitingCount="0" stopTime="0.00" timeLoss="46.20" rerouteNo="0" devices="tripinfo_veh22" vType="passenger" speedFactor="1.12" vaporized=""/>
    <tripinfo id="veh1" depart="1.00" departLane="-43547256#0_1" departPos="281.13" departSpeed="0.00" departDelay="0.26" arrival="211.00" arrivalLane="-40304754#5_1" arrivalPos="153.81" arrivalSpeed="12.51" duration="210.00" routeLength="2305.94" waitingTime="0.00" waitingCount="0" stopTime="0.00" timeLoss="31.38" rerouteNo="0" devices="tripinfo_veh1" vType="motorcycle" speedFactor="0.98" vaporized=""/>
    <tripinfo id="veh59" depart="44.00" departLane="-578560104#5_1" departPos="23.14" departSpeed="0.00" departDelay="0.34" arrival="211.00" arrivalLane="176279225#2_1" arrivalPos="97.77" arrivalSpeed="13.07" duration="167.00" routeLength="1474.97" waitingTime="15.00" waitingCount="1" stopTime="0.00" timeLoss="43.61" rerouteNo="0" devices="tripinfo_veh59" vType="passenger" speedFactor="1.02" vaporized=""/>
    <tripinfo id="veh260" depart="193.00" departLane="-48778508#0_1" departPos="8.24" departSpeed="0.00" departDelay="0.60" arrival="213.00" arrivalLane="48778494#1_1" arrivalPos="15.92" arrivalSpeed="9.78" duration="20.00" routeLength="186.62" waitingTime="0.00" waitingCount="0" stopTime="0.00" timeLoss="6.15" rerouteNo="0" devices="tripinfo_veh260" vType="passenger" speedFactor="1.02" vaporized=""/>
    <tripinfo id="veh21" depart="16.00" departLane="354250407#1_2" departPos="57.27" departSpeed="0.00" departDelay="0.46" arrival="214.00" arrivalLane="-354259933#3_1" arrivalPos="60.32" arrivalSpeed="15.13" duration="198.00" routeLength="1761.91" waitingTime="54.00" waitingCount="3" stopTime="0.00" timeLoss="86.26" rerouteNo="0" devices="tripinfo_veh21" vType="passenger" speedFactor="1.15" vaporized=""/>
    <tripinfo id="veh90" depart="67.00" departLane="-258551321_1" departPos="53.95" departSpeed="0.00" departDelay="0.40" arrival="214.00" arrivalLane="-40334244#3_1" arrivalPos="176.10" arrivalSpeed="13.75" duration="147.00" routeLength="1609.21" waitingTime="5.00" waitingCount="1" stopTime="0.00" timeLoss="29.84" rerouteNo="0" devices="tripinfo_veh90" vType="delivery" speedFactor="1.03" vaporized=""/>
    <tripinfo id="veh71" depart="53.00" departLane="222609004#1_1" departPos="0.84" departSpeed="0.00" departDelay="0.46" arrival="217.00" arrivalLane="-647226814#1_1" arrivalPos="38.44" arrivalSpeed="13.38" duration="164.00" routeLength="1846.07" waitingTime="0.00" waitingCount="0" stopTime="0.00" timeLoss="26.37" rerouteNo="0" devices="tripinfo_veh71" vType="passenger" speedFactor="1.01" vaporized=""/>
    <tripinfo id="veh175" depart="131.00" departLane="43573547#8_1" departPos="26.66" departSpeed="0.00" departDelay="1.50" arrival="223.00" arrivalLane="984508802_0" arrivalPos="57.38" arrivalSpeed="5.08" duration="92.00" routeLength="887.99" waitingTime="0.00" waitingCount="0" stopTime="0.00" timeLoss="14.99" rerouteNo="0" devices="tripinfo_veh175" vType="emergency" speedFactor="1.00" vaporized=""/>
    <tripinfo id="veh54" depart="40.00" departLane="40334244#2_1" departPos="1.23" departSpeed="0.00" departDelay="0.04" arrival="225.00" arrivalLane="258551321_1" arrivalPos="124.63" arrivalSpeed="11.97" duration="185.00" routeLength="1671.14" waitingTime="19.00" waitingCount="2" stopTime="0.00" timeLoss="46.88" rerouteNo="0" devices="tripinfo_veh54" vType="passenger" speedFactor="0.91" vaporized=""/>
    <tripinfo id="veh12" depart="9.00" departLane="-48736614#1_1" departPos="140.24" departSpeed="0.00" departDelay="0.12" arrival="227.00" arrivalLane="48778441#0_1" arrivalPos="38.64" arrivalSpeed="13.02" duration="218.00" routeLength="1351.77" waitingTime="89.00" waitingCount="1" stopTime="0.00" timeLoss="115.06" rerouteNo="0" devices="tripinfo_veh12" vType="emergency" speedFactor="1.00" vaporized=""/>
    <tripinfo id="veh96" depart="72.00" departLane="43573547#5_1" departPos="55.35" departSpeed="0.00" departDelay="0.96" arrival="227.00" arrivalLane="1136301811_1" arrivalPos="31.32" arrivalSpeed="7.73" duration="155.00" routeLength="1260.32" waitingTime="32.00" waitingCount="1" stopTime="0.00" timeLoss="54.55" rerouteNo="0" devices="tripinfo_veh96" vType="passenger" speedFactor="0.97" vaporized=""/>
    <tripinfo id="veh228" depart="169.00" departLane="250295383#3_1" departPos="7.69" departSpeed="0.00" departDelay="0.28" arrival="227.00" arrivalLane="-48797772_1" arrivalPos="103.62" arrivalSpeed="11.93" duration="58.00" routeLength="544.29" waitingTime="0.00" waitingCount="0" stopTime="0.00" timeLoss="13.48" rerouteNo="0" devices="tripinfo_veh228" vType="delivery" speedFactor="0.93" vaporized=""/>
    <tripinfo id="veh49" depart="37.00" departLane="176279225#4_1" departPos="59.18" departSpeed="0.00" departDelay="0.74" arrival="229.00" arrivalLane="1136283361_0" arrivalPos="47.88" arrivalSpeed="4.94" duration="192.00" routeLength="1341.93" waitingTime="50.00" waitingCount="3" stopTime="0.00" timeLoss="83.64" rerouteNo="0" devices="tripinfo_veh49" vType="passenger" speedFactor="1.00" vaporized=""/>
    <tripinfo id="veh217" depart="161.00" departLane="-48778525#2_1" departPos="55.45" departSpeed="0.00" departDelay="0.42" arrival="229.00" arrivalLane="48778527_1" arrivalPos="56.14" arrivalSpeed="13.31" duration="68.00" routeLength="722.12" waitingTime="0.00" waitingCount="0" stopTime="0.00" timeLoss="13.53" rerouteNo="0" devices="tripinfo_veh217" vType="passenger" speedFactor="1.01" vaporized=""/>
    <tripinfo id="veh82" depart="61.00" departLane="222605084#1_1" departPos="0.35" departSpeed="0.00" departDelay="0.32" arrival="233.00" arrivalLane="-1136284448_1" arrivalPos="34.50" arrivalSpeed="8.60" duration="172.00" routeLength="1303.29" waitingTime="13.00" waitingCount="4" stopTime="0.00" timeLoss="57.83" rerouteNo="0" devices="tripinfo_veh82" vType="passenger" speedFactor="1.10" vaporized=""/>
    <tripinfo id="veh267" depart="198.00" departLane="48736638#1_1" departPos="30.75" departSpeed="0.00" departDelay="0.42" arrival="234.00" arrivalLane="48736640#0_1" arrivalPos="55.87" arrivalSpeed="13.83" duration="36.00" routeLength="365.96" waitingTime="0.00" waitingCount="0" stopTime="0.00" timeLoss="10.69" rerouteNo="0" devices="tripinfo_veh267" vType="passenger" speedFactor="1.09" vaporized=""/>
    <tripinfo id="veh73" depart="55.00" departLane="1250915720#5_1" departPos="0.69" departSpeed="0.00" departDelay="0.98" arrival="235.00" arrivalLane="48778481#4_2" arrivalPos="195.74" arrivalSpeed="10.19" duration="180.00" routeLength="1677.86" waitingTime="0.00" waitingCount="0" stopTime="0.00" timeLoss="36.87" rerouteNo="0" devices="tripinfo_veh73" vType="motorcycle" speedFactor="0.94" vaporized=""/>
    <tripinfo id="veh64" depart="48.00" departLane="383582853_0" departPos="3.85" departSpeed="0.00" departDelay="0.64" arrival="236.00" arrivalLane="40309190_1" arrivalPos="61.38" arrivalSpeed="12.52" duration="188.00" routeLength="1792.49" waitingTime="20.00" waitingCount="1" stopTime="0.00" timeLoss="40.87" rerouteNo="0" devices="tripinfo_veh64" vType="passenger" speedFactor="0.92" vaporized=""/>
    <tripinfo id="veh44" depart="33.00" departLane="-984521611#0_0" departPos="2.38" departSpeed="0.00" departDelay="0.44" arrival="245.00" arrivalLane="43544179#11_1" arrivalPos="85.20" arrivalSpeed="10.97" duration="212.00" routeLength="2309.32" waitingTime="0.00" waitingCount="0" stopTime="0.00" timeLoss="38.97" rerouteNo="0" devices="tripinfo_veh44" vType="motorcycle" speedFactor="1.00" vaporized=""/>
    <tripinfo id="veh115" depart="86.00" departLane="-92198453#4_1" departPos="37.80" departSpeed="0.00" departDelay="0.90" arrival="245.00" arrivalLane="43544001#1_1" arrivalPos="24.62" arrivalSpeed="13.53" duration="159.00" routeLength="1864.14" waitingTime="4.00" waitingCount="1" stopTime="0.00" timeLoss="24.46" rerouteNo="0" devices="tripinfo_veh115" vType="passenger" speedFactor="1.02" vaporized=""/>
    <personinfo id="ped24" depart="120.00" type="DEFAULT_PEDTYPE" speedFactor="0.82" duration="126.00" waitingTime="0.00" timeLoss="13.51" traveltime="126.00">
        <walk depart="120.00" departPos="0.00" arrival="246.00" arrivalPos="13.53" duration="126.00" routeLength="128.43" timeLoss="13.51" maxSpeed="1.14"/>
    </personinfo>
    <tripinfo id="veh112" depart="83.00" departLane="1135854143_1" departPos="39.93" departSpeed="0.00" departDelay="0.12" arrival="246.00" arrivalLane="-48736620#5_1" arrivalPos="11.94" arrivalSpeed="13.22" duration="163.00" routeLength="875.64" waitingTime="82.00" waitingCount="1" stopTime="0.00" timeLoss="98.48" rerouteNo="0" devices="tripinfo_veh112" vType="motorcycle" speedFactor="1.04" vaporized=""/>
    <tripinfo id="veh268" depart="199.00" departLane="-40330592_1" departPos="104.01" departSpeed="0.00" departDelay="0.68" arrival="246.00" arrivalLane="-1250915720#6_1" arrivalPos="63.36" arrivalSpeed="5.93" duration="47.00" routeLength="389.43" waitingTime="0.00" waitingCount="0" stopTime="0.00" timeLoss="13.37" rerouteNo="0" devices="tripinfo_veh268" vType="passenger" speedFactor="1.13" vaporized=""/>
    <tripinfo id="veh209" depart="155.00" departLane="1135854143_1" departPos="23.48" departSpeed="0.00" departDelay="0.34" arrival="250.00" arrivalLane="E26_2" arrivalPos="166.60" arrivalSpeed="11.64" duration="95.00" routeLength="790.65" waitingTime="14.00" waitingCount="2" stopTime="0.00" timeLoss="35.46" rerouteNo="0" devices="tripinfo_veh209" vType="motorcycle" speedFactor="1.04" vaporized=""/>
    <tripinfo id="veh174" depart="129.00" departLane="48778481#8_1" departPos="6.82" departSpeed="0.00" departDelay="0.24" arrival="251.00" arrivalLane="-353939570#10_1" arrivalPos="344.65" arrivalSpeed="14.12" duration="122.00" routeLength="1350.23" waitingTime="11.00" waitingCount="1" stopTime="0.00" timeLoss="28.95" rerouteNo="0" devices="tripinfo_veh174" vType="passenger" speedFactor="1.07" vaporized=""/>
    <tripinfo id="veh37" depart="28.00" departLane="48778508#2_1" departPos="0.59" departSpeed="0.00" departDelay="0.62" arrival="252.00" arrivalLane="-48778461#1_1" arrivalPos="23.84" arrivalSpeed="10.16" duration="224.00" routeLength="2100.05" waitingTime="35.00" waitingCount="3" stopTime="0.00" timeLoss="78.10" rerouteNo="0" devices="tripinfo_veh37" vType="passenger" speedFactor="1.09" vaporized=""/>
    <tripinfo id="veh122" depart="91.00" departLane="-43546343#0_1" departPos="94.70" departSpeed="0.00" departDelay="0.72" arrival="253.00" arrivalLane="48736607#0_1" arrivalPos="36.67" arrivalSpeed="13.05" duration="162.00" routeLength="1416.05" waitingTime="50.00" waitingCount="1" stopTime="0.00" timeLoss="75.63" rerouteNo="0" devices="tripinfo_veh122" vType="passenger" speedFactor="1.21" vaporized=""/>
    <tripinfo id="veh126" depart="94.00" departLane="-48778494#1_1" departPos="8.34" departSpeed="0.00" departDelay="0.76" arrival="253.00" arrivalLane="-40236228#1_1" arrivalPos="43.16" arrivalSpeed="12.77" duration="159.00" routeLength="1669.31" waitingTime="0.00" waitingCount="0" stopTime="0.00" timeLoss="24.68" rerouteNo="0" devices="tripinfo_veh126" vType="passenger" speedFactor="0.94" vaporized=""/>
    <tripinfo id="veh233" depart="173.00" departLane="1250915721#1_1" departPos="4.82" departSpeed="0.00" departDelay="0.58" arrival="254.00" arrivalLane="353939570#10_1" arrivalPos="350.36" arrivalSpeed="12.78" duration="81.00" routeLength="702.75" waitingTime="0.00" waitingCount="0" stopTime="0.00" timeLoss="8.75" rerouteNo="0" devices="tripinfo_veh233" vType="passenger" speedFactor="0.95" vaporized=""/>
    <tripinfo id="veh31" depart="23.00" departLane="1135772296#0_0" departPos="21.58" departSpeed="0.00" departDelay="0.06" arrival="255.00" arrivalLane="-40306162#1_1" arrivalPos="43.20" arrivalSpeed="4.46" duration="232.00" routeLength="978.11" waitingTime="1.00" waitingCount="1" stopTime="0.00" timeLoss="20.78" rerouteNo="0" devices="tripinfo_veh31" vType="bicycle" speedFactor="0.83" vaporized=""/>
    <tripinfo id="veh75" depart="56.00" departLane="222605084#5_1" departPos="8.58" departSpeed="0.00" departDelay="0.50" arrival="255.00" arrivalLane="48736664#1_1" arrivalPos="36.30" arrivalSpeed="13.12" duration="199.00" routeLength="1623.82" waitingTime="13.00" waitingCount="3" stopTime="0.00" timeLoss="57.59" rerouteNo="0" devices="tripinfo_veh75" vType="passenger" speedFactor="1.05" vaporized=""/>
    <tripinfo id="veh125" depart="93.00" departLane="40345956#3_1" departPos="0.85" departSpeed="0.00" departDelay="0.50" arrival="257.00" arrivalLane="-48736612#3_1" arrivalPos="54.88" arrivalSpeed="13.36" duration="164.00" routeLength="1830.28" waitingTime="0.00" waitingCount="0" stopTime="0.00" timeLoss="24.48" rerouteNo="0" devices="tripinfo_veh125" vType="motorcycle" speedFactor="1.04" vaporized=""/>
    <tripinfo id="veh206" depart="153.00" departLane="-1136119743#1_1" departPos="23.17" departSpeed="0.00" departDelay="0.56" arrival="257.00" arrivalLane="-1250915721#0_1" arrivalPos="14.93" arrivalSpeed="4.28" duration="104.00" routeLength="551.18" waitingTime="1.00" waitingCount="1" stopTime="0.00" timeLoss="19.99" rerouteNo="0" devices="tripinfo_veh206" vType="passenger" speedFactor="0.85" vaporized=""/>
    <tripinfo id="veh18" depart="14.00" departLane="945793490#3_1" departPos="7.54" departSpeed="0.00" departDelay="0.68" arrival="259.00" arrivalLane="-43546105#1_1" arrivalPos="277.53" arrivalSpeed="8.15" duration="245.00" routeLength="2645.15" waitingTime="1.00" waitingCount="1" stopTime="0.00" timeLoss="33.61" rerouteNo="0" devices="tripinfo_veh18" vType="passenger" speedFactor="1.03" vaporized=""/>
    <tripinfo id="veh43" depart="32.00" departLane="48797768_1" departPos="86.42" departSpeed="0.00" departDelay="0.18" arrival="259.00" arrivalLane="-222605084#4_1" arrivalPos="16.56" arrivalSpeed="4.54" duration="227.00" routeLength="2091.20" waitingTime="21.00" waitingCount="1" stopTime="0.00" timeLoss="54.37" rerouteNo="0" devices="tripinfo_veh43" vType="passenger" speedFactor="1.05" vaporized=""/>
    <tripinfo id="veh114" depart="85.00" departLane="48778429#3_1" departPos="138.54" departSpeed="0.00" departDelay="0.64" arrival="259.00" arrivalLane="48736646#1_1" arrivalPos="161.98" arrivalSpeed="12.94" duration="174.00" routeLength="2165.44" waitingTime="0.00" waitingCount="0" stopTime="0.00" timeLoss="15.95" rerouteNo="0" devices="tripinfo_veh114" vType="emergency" speedFactor="1.00" vaporized=""/>
    <tripinfo id="veh227" depart="168.00" departLane="353939570#3_2" departPos="206.13" departSpeed="0.00" departDelay="0.02" arrival="259.00" arrivalLane="48778489#3_1" arrivalPos="140.23" arrivalSpeed="12.07" duration="91.00" routeLength="841.23" waitingTime="1.00" waitingCount="1" stopTime="0.00" timeLoss="23.09" rerouteNo="0" devices="tripinfo_veh227" vType="motorcycle" speedFactor="0.93" vaporized=""/>
    <personinfo id="ped3" depart="15.00" type="DEFAULT_PEDTYPE" speedFactor="0.93" duration="245.00" waitingTime="0.00" timeLoss="24.45" traveltime="245.00">
        <walk depart="15.00" departPos="0.00" arrival="260.00" arrivalPos="17.45" duration="245.00" routeLength="283.50" timeLoss="24.45" maxSpeed="1.29"/>
    </personinfo>