<?xml version="1.0" encoding="UTF-8"?>

<!-- generated on 2025-06-15 22:00:51 by Eclipse SUMO sumo Version 1.22.0
<sumoConfiguration xmlns:xsi="http://www.w3.org/2001/XMLSchema-instance" xsi:noNamespaceSchemaLocation="http://sumo.dlr.de/xsd/sumoConfiguration.xsd">

    <input>
        <net-file value="E:/licenta/oras-mediu/2025-06-05-11-45-23\osm.net.xml"/>
        <route-files value="E:/licenta/oras-mediu/2025-06-05-11-45-23\full.rou.xml,E:/licenta/oras-mediu/2025-06-05-11-45-23\ ped.rou.xml,E:/licenta/oras-mediu/2025-06-05-11-45-23\ truck.rou.xml"/>
        <additional-files value="E:/licenta/oras-mediu/2025-06-05-11-45-23\osm.poly.xml,E:/licenta/oras-mediu/2025-06-05-11-45-23\ vtypes.xml"/>
    </input>

    <output>
        <summary-output value="E:/licenta/oras-mediu/2025-06-05-11-45-23\summary.xml"/>
        <tripinfo-output value="E:/licenta/oras-mediu/2025-06-05-11-45-23\tripinfo.xml"/>
    </output>

    <processing>
        <ignore-route-errors value="true"/>
        <tls.actuated.jam-threshold value="30"/>
    </processing>

    <routing>
        <device.rerouting.adaptation-steps value="18"/>
        <device.rerouting.adaptation-interval value="10"/>
    </routing>

    <report>
        <verbose value="true"/>
        <duration-log.statistics value="true"/>
        <no-step-log value="true"/>
    </report>

    <traci_server>
        <remote-port value="65313"/>
    </traci_server>

    <gui_only>
        <gui-settings-file value="E:/licenta/oras-mediu/2025-06-05-11-45-23\osm.view.xml"/>
    </gui_only>

</sumoConfiguration>
-->

<tripinfos xmlns:xsi="http://www.w3.org/2001/XMLSchema-instance" xsi:noNamespaceSchemaLocation="http://sumo.dlr.de/xsd/tripinfo_file.xsd">
    <personinfo id="ped0" depart="0.00" type="DEFAULT_PEDTYPE" speedFactor="1.03" duration="32.00" waitingTime="0.00" timeLoss="3.39" traveltime="32.00">
        <walk depart="0.00" departPos="0.00" arrival="32.00" arrivalPos="29.31" duration="32.00" routeLength="40.95" timeLoss="3.39" maxSpeed="1.43"/>
    </personinfo>
    <tripinfo id="veh1" depart="1.00" departLane="-996489799#1_0" departPos="2.40" departSpeed="0.00" departDelay="0.33" arrival="58.00" arrivalLane="40265778#0_1" arrivalPos="145.00" arrivalSpeed="14.43" duration="57.00" routeLength="619.57" waitingTime="0.00" waitingCount="0" stopTime="0.00" timeLoss="7.87" rerouteNo="0" devices="tripinfo_veh1" vType="passenger" speedFactor="1.08" vaporized=""/>
    <tripinfo id="veh76" depart="51.00" departLane="-859732801#1_1" departPos="10.59" departSpeed="0.00" departDelay="0.08" arrival="58.00" arrivalLane="859732802#0_0" arrivalPos="5.59" arrivalSpeed="4.36" duration="7.00" routeLength="29.08" waitingTime="0.00" waitingCount="0" stopTime="0.00" timeLoss="2.65" rerouteNo="0" devices="tripinfo_veh76" vType="emergency" speedFactor="1.00" vaporized=""/>
    <tripinfo id="veh17" depart="12.00" departLane="-530103972_1" departPos="7.92" departSpeed="0.00" departDelay="0.61" arrival="64.00" arrivalLane="1135854210_1" arrivalPos="13.11" arrivalSpeed="3.79" duration="52.00" routeLength="220.77" waitingTime="0.00" waitingCount="0" stopTime="0.00" timeLoss="12.76" rerouteNo="0" devices="tripinfo_veh17" vType="passenger" speedFactor="0.87" vaporized=""/>
    <tripinfo id="veh8" depart="6.00" departLane="40345930_1" departPos="5.83" departSpeed="0.00" departDelay="0.64" arrival="83.00" arrivalLane="33909936#2_1" arrivalPos="59.66" arrivalSpeed="11.90" duration="77.00" routeLength="809.88" waitingTime="0.00" waitingCount="0" stopTime="0.00" timeLoss="10.59" rerouteNo="0" devices="tripinfo_veh8" vType="passenger" speedFactor="0.90" vaporized=""/>
    <tripinfo id="veh40" depart="27.00" departLane="43573769#1_1" departPos="8.44" departSpeed="0.00" departDelay="0.20" arrival="100.00" arrivalLane="-43546935#3_1" arrivalPos="13.61" arrivalSpeed="12.69" duration="73.00" routeLength="786.61" waitingTime="0.00" waitingCount="0" stopTime="0.00" timeLoss="13.28" rerouteNo="0" devices="tripinfo_veh40" vType="motorcycle" speedFactor="1.00" vaporized=""/>
    <tripinfo id="veh63" depart="43.00" departLane="-143207979#1_1" departPos="34.72" departSpeed="0.00" departDelay="0.79" arrival="104.00" arrivalLane="-289113778#0_1" arrivalPos="105.65" arrivalSpeed="12.29" duration="61.00" routeLength="619.97" waitingTime="0.00" waitingCount="0" stopTime="0.00" timeLoss="10.91" rerouteNo="0" devices="tripinfo_veh63" vType="passenger" speedFactor="0.98" vaporized=""/>
    <tripinfo id="veh101" depart="68.00" departLane="-647347140#2_1" departPos="11.13" departSpeed="0.00" departDelay="0.33" arrival="112.00" arrivalLane="945794109_1" arrivalPos="21.82" arrivalSpeed="8.92" duration="44.00" routeLength="411.73" waitingTime="0.00" waitingCount="0" stopTime="0.00" timeLoss="13.77" rerouteNo="0" devices="tripinfo_veh101" vType="passenger" speedFactor="1.12" vaporized=""/>
    <tripinfo id="veh35" depart="24.00" departLane="-1136289992_1" departPos="17.10" departSpeed="0.00" departDelay="0.55" arrival="116.00" arrivalLane="-647226814#1_1" arrivalPos="38.44" arrivalSpeed="13.03" duration="92.00" routeLength="869.05" waitingTime="0.00" waitingCount="0" stopTime="0.00" timeLoss="20.40" rerouteNo="0" devices="tripinfo_veh35" vType="passenger" speedFactor="0.95" vaporized=""/>
    <tripinfo id="veh53" depart="36.00" departLane="-40236203#2_1" departPos="2.42" departSpeed="0.00" departDelay="0.49" arrival="118.00" arrivalLane="-945793486#1_0" arrivalPos="53.92" arrivalSpeed="4.76" duration="82.00" routeLength="713.22" waitingTime="1.00" waitingCount="1" stopTime="0.00" timeLoss="17.92" rerouteNo="0" devices="tripinfo_veh53" vType="delivery" speedFactor="0.96" vaporized=""/>
    <tripinfo id="veh79" depart="53.00" departLane="43544197#8_1" departPos="0.68" departSpeed="0.00" departDelay="0.07" arrival="130.00" arrivalLane="43546109_1" arrivalPos="180.80" arrivalSpeed="13.65" duration="77.00" routeLength="886.37" waitingTime="0.00" waitingCount="0" stopTime="0.00" timeLoss="14.29" rerouteNo="0" devices="tripinfo_veh79" vType="passenger" speedFactor="1.06" vaporized=""/>
    <tripinfo id="veh158" depart="106.00" departLane="48778520_1" departPos="38.12" departSpeed="0.00" departDelay="0.14" arrival="136.00" arrivalLane="43544184#2_1" arrivalPos="44.28" arrivalSpeed="15.32" duration="30.00" routeLength="271.82" waitingTime="0.00" waitingCount="0" stopTime="0.00" timeLoss="11.35" rerouteNo="0" devices="tripinfo_veh158" vType="passenger" speedFactor="1.15" vaporized=""/>
    <tripinfo id="veh23" depart="16.00" departLane="-40330571#0_1" departPos="6.09" departSpeed="0.00" departDelay="0.59" arrival="138.00" arrivalLane="-578560104#3_1" arrivalPos="122.64" arrivalSpeed="13.61" duration="122.00" routeLength="1273.71" waitingTime="1.00" waitingCount="1" stopTime="0.00" timeLoss="26.11" rerouteNo="0" devices="tripinfo_veh23" vType="passenger" speedFactor="0.99" vaporized=""/>
    <tripinfo id="veh2" depart="2.00" departLane="40305706#2_1" departPos="31.05" departSpeed="0.00" departDelay="0.66" arrival="139.00" arrivalLane="48778453_1" arrivalPos="29.18" arrivalSpeed="12.70" duration="137.00" routeLength="898.93" waitingTime="0.00" waitingCount="0" stopTime="0.00" timeLoss="71.64" rerouteNo="0" devices="tripinfo_veh2" vType="passenger" speedFactor="1.08" vaporized=""/>
    <tripinfo id="veh50" depart="34.00" departLane="40236144#3_1" departPos="49.72" departSpeed="0.00" departDelay="0.50" arrival="140.00" arrivalLane="-223883703_0" arrivalPos="83.93" arrivalSpeed="5.04" duration="106.00" routeLength="881.23" waitingTime="4.00" waitingCount="1" stopTime="0.00" timeLoss="23.94" rerouteNo="0" devices="tripinfo_veh50" vType="passenger" speedFactor="0.91" vaporized=""/>
    <tripinfo id="veh133" depart="90.00" departLane="-647226814#1_1" departPos="8.62" departSpeed="0.00" departDelay="0.89" arrival="145.00" arrivalLane="-43544179#6_1" arrivalPos="35.50" arrivalSpeed="15.32" duration="55.00" routeLength="549.11" waitingTime="2.00" waitingCount="1" stopTime="0.00" timeLoss="17.55" rerouteNo="0" devices="tripinfo_veh133" vType="passenger" speedFactor="1.13" vaporized=""/>
    <tripinfo id="veh71" depart="48.00" departLane="-40304754#5_1" departPos="49.46" departSpeed="0.00" departDelay="0.43" arrival="146.00" arrivalLane="354252039#1_1" arrivalPos="19.16" arrivalSpeed="11.59" duration="98.00" routeLength="686.61" waitingTime="24.00" waitingCount="1" stopTime="0.00" timeLoss="38.29" rerouteNo="0" devices="tripinfo_veh71" vType="passenger" speedFactor="0.86" vaporized=""/>
    <tripinfo id="veh152" depart="104.00" departLane="-43544179#5_1" departPos="1.61" departSpeed="0.00" departDelay="2.16" arrival="147.00" arrivalLane="43546064#1_1" arrivalPos="98.06" arrivalSpeed="12.55" duration="43.00" routeLength="474.92" waitingTime="0.00" waitingCount="0" stopTime="0.00" timeLoss="6.45" rerouteNo="0" devices="tripinfo_veh152" vType="delivery" speedFactor="0.99" vaporized=""/>
    <tripinfo id="veh37" depart="25.00" departLane="48736601_1" departPos="184.21" departSpeed="0.00" departDelay="0.21" arrival="158.00" arrivalLane="647621857_0" arrivalPos="41.48" arrivalSpeed="5.59" duration="133.00" routeLength="1434.65" waitingTime="0.00" waitingCount="0" stopTime="0.00" timeLoss="27.00" rerouteNo="0" devices="tripinfo_veh37" vType="passenger" speedFactor="1.06" vaporized=""/>
    <tripinfo id="veh95" depart="64.00" departLane="-1136289987_1" departPos="51.76" departSpeed="0.00" departDelay="0.35" arrival="165.00" arrivalLane="-222608881#0_1" arrivalPos="169.24" arrivalSpeed="11.44" duration="101.00" routeLength="980.45" waitingTime="0.00" waitingCount="0" stopTime="0.00" timeLoss="19.42" rerouteNo="0" devices="tripinfo_veh95" vType="motorcycle" speedFactor="0.94" vaporized=""/>
    <personinfo id="ped7" depart="35.00" type="DEFAULT_PEDTYPE" speedFactor="0.91" duration="134.00" waitingTime="0.00" timeLoss="13.94" traveltime="134.00">
        <walk depart="35.00" departPos="0.00" arrival="169.00" arrivalPos="55.80" duration="134.00" routeLength="150.98" timeLoss="13.94" maxSpeed="1.26"/>
    </personinfo>
    <tripinfo id="veh5" depart="4.00" departLane="-40330575#1_1" departPos="2.70" departSpeed="0.00" departDelay="0.65" arrival="174.00" arrivalLane="43546935#3_1" arrivalPos="13.61" arrivalSpeed="13.36" duration="170.00" routeLength="1821.27" waitingTime="5.00" waitingCount="1" stopTime="0.00" timeLoss="37.29" rerouteNo="0" devices="tripinfo_veh5" vType="delivery" speedFactor="1.05" vaporized=""/>
    <tripinfo id="veh104" depart="70.00" departLane="-43545645#0_1" departPos="216.81" departSpeed="0.00" departDelay="0.32" arrival="176.00" arrivalLane="43547017#5_1" arrivalPos="24.31" arrivalSpeed="10.52" duration="106.00" routeLength="1008.63" waitingTime="0.00" waitingCount="0" stopTime="0.00" timeLoss="16.36" rerouteNo="0" devices="tripinfo_veh104" vType="motorcycle" speedFactor="0.84" vaporized=""/>
    <tripinfo id="veh83" depart="56.00" departLane="43544001#7_1" departPos="5.46" departSpeed="0.00" departDelay="0.39" arrival="177.00" arrivalLane="-43573769#0_1" arrivalPos="44.70" arrivalSpeed="13.38" duration="121.00" routeLength="1442.02" waitingTime="0.00" waitingCount="0" stopTime="0.00" timeLoss="12.28" rerouteNo="0" devices="tripinfo_veh83" vType="passenger" speedFactor="0.98" vaporized=""/>
    <tripinfo id="veh45" depart="31.00" departLane="48736646#1_1" departPos="1.89" departSpeed="0.00" departDelay="0.85" arrival="180.00" arrivalLane="859728622_0" arrivalPos="319.42" arrivalSpeed="4.98" duration="149.00" routeLength="1148.17" waitingTime="0.00" waitingCount="0" stopTime="0.00" timeLoss="26.09" rerouteNo="0" devices="tripinfo_veh45" vType="passenger" speedFactor="1.00" vaporized=""/>
    <tripinfo id="veh144" depart="97.00" departLane="40265778#0_2" departPos="29.52" departSpeed="0.00" departDelay="0.52" arrival="182.00" arrivalLane="48778494#1_1" arrivalPos="15.92" arrivalSpeed="13.43" duration="85.00" routeLength="847.65" waitingTime="10.00" waitingCount="1" stopTime="0.00" timeLoss="25.64" rerouteNo="0" devices="tripinfo_veh144" vType="motorcycle" speedFactor="1.08" vaporized=""/>
    <tripinfo id="veh49" depart="33.00" departLane="48778489#3_2" departPos="62.62" departSpeed="0.00" departDelay="0.17" arrival="186.00" arrivalLane="-143207979#3_1" arrivalPos="38.67" arrivalSpeed="13.01" duration="153.00" routeLength="1597.26" waitingTime="1.00" waitingCount="1" stopTime="0.00" timeLoss="27.44" rerouteNo="0" devices="tripinfo_veh49" vType="passenger" speedFactor="0.96" vaporized=""/>
    <tripinfo id="veh81" depart="55.00" departLane="48778508#3_1" departPos="1.88" departSpeed="0.00" departDelay="0.73" arrival="186.00" arrivalLane="-48778526_1" arrivalPos="97.35" arrivalSpeed="14.46" duration="131.00" routeLength="1324.52" waitingTime="11.00" waitingCount="2" stopTime="0.00" timeLoss="38.89" rerouteNo="0" devices="tripinfo_veh81" vType="passenger" speedFactor="1.08" vaporized=""/>
    <tripinfo id="veh195" depart="131.00" departLane="649025399_0" departPos="1.52" departSpeed="0.00" departDelay="0.35" arrival="186.00" arrivalLane="352818096#1_0" arrivalPos="3.80" arrivalSpeed="10.85" duration="55.00" routeLength="662.52" waitingTime="0.00" waitingCount="0" stopTime="0.00" timeLoss="10.34" rerouteNo="0" devices="tripinfo_veh195" vType="passenger" speedFactor="1.10" vaporized=""/>
    <tripinfo id="veh91" depart="61.00" departLane="43544179#7_1" departPos="26.33" departSpeed="0.00" departDelay="0.03" arrival="188.00" arrivalLane="-67736383_1" arrivalPos="44.80" arrivalSpeed="6.14" duration="127.00" routeLength="753.20" waitingTime="0.00" waitingCount="0" stopTime="0.00" timeLoss="11.53" rerouteNo="0" devices="tripinfo_veh91" vType="bicycle" speedFactor="1.18" vaporized=""/>
    <tripinfo id="veh10" depart="7.00" departLane="1137794254_1" departPos="18.29" departSpeed="0.00" departDelay="0.30" arrival="191.00" arrivalLane="-984505045_0" arrivalPos="60.61" arrivalSpeed="5.37" duration="184.00" routeLength="1702.68" waitingTime="0.00" waitingCount="0" stopTime="0.00" timeLoss="49.25" rerouteNo="0" devices="tripinfo_veh10" vType="passenger" speedFactor="1.04" vaporized=""/>
    <personinfo id="ped34" depart="170.00" type="DEFAULT_PEDTYPE" speedFactor="0.98" duration="23.00" waitingTime="0.00" timeLoss="3.76" traveltime="23.00">
        <walk depart="170.00" departPos="0.00" arrival="193.00" arrivalPos="12.18" duration="23.00" routeLength="26.11" timeLoss="3.76" maxSpeed="1.36"/>
    </personinfo>
    <tripinfo id="veh27" depart="19.00" departLane="48778485#0_1" departPos="14.26" departSpeed="0.00" departDelay="0.91" arrival="194.00" arrivalLane="43544197#7_1" arrivalPos="49.46" arrivalSpeed="15.00" duration="175.00" routeLength="1695.47" waitingTime="21.00" waitingCount="1" stopTime="0.00" timeLoss="58.98" rerouteNo="0" devices="tripinfo_veh27" vType="passenger" speedFactor="1.10" vaporized=""/>
    <tripinfo id="veh62" depart="42.00" departLane="-43546105#0_1" departPos="68.24" departSpeed="0.00" departDelay="0.46" arrival="195.00" arrivalLane="-1250915722#2_1" arrivalPos="3.43" arrivalSpeed="6.01" duration="153.00" routeLength="1477.93" waitingTime="0.00" waitingCount="0" stopTime="0.00" timeLoss="27.55" rerouteNo="0" devices="tripinfo_veh62" vType="passenger" speedFactor="1.08" vaporized=""/>
    <personinfo id="ped8" depart="40.00" type="DEFAULT_PEDTYPE" speedFactor="0.93" duration="156.00" waitingTime="0.00" timeLoss="14.60" traveltime="156.00">
        <walk depart="40.00" departPos="0.00" arrival="196.00" arrivalPos="22.20" duration="156.00" routeLength="182.71" timeLoss="14.60" maxSpeed="1.29"/>
    </personinfo>
    <tripinfo id="veh20" depart="14.00" departLane="-48778502#1_1" departPos="158.48" departSpeed="0.00" departDelay="0.60" arrival="199.00" arrivalLane="43545645#1_1" arrivalPos="98.66" arrivalSpeed="11.72" duration="185.00" routeLength="1919.31" waitingTime="0.00" waitingCount="0" stopTime="0.00" timeLoss="24.45" rerouteNo="0" devices="tripinfo_veh20" vType="passenger" speedFactor="0.89" vaporized=""/>
    <tripinfo id="veh13" depart="9.00" departLane="401741889#1_1" departPos="67.88" departSpeed="0.00" departDelay="0.29" arrival="200.00" arrivalLane="92198453#2_1" arrivalPos="113.66" arrivalSpeed="13.93" duration="191.00" routeLength="2283.99" waitingTime="2.00" waitingCount="1" stopTime="0.00" timeLoss="25.91" rerouteNo="0" devices="tripinfo_veh13" vType="passenger" speedFactor="1.02" vaporized=""/>
    <tripinfo id="veh57" depart="39.00" departLane="-143207979#5_1" departPos="0.49" departSpeed="0.00" departDelay="0.81" arrival="203.00" arrivalLane="383582504#0_0" arrivalPos="3.64" arrivalSpeed="4.24" duration="164.00" routeLength="1830.38" waitingTime="0.00" waitingCount="0" stopTime="0.00" timeLoss="16.99" rerouteNo="0" devices="tripinfo_veh57" vType="passenger" speedFactor="0.92" vaporized=""/>
    <tripinfo id="veh67" depart="45.00" departLane="40330571#3_1" departPos="175.84" departSpeed="0.00" departDelay="0.11" arrival="203.00" arrivalLane="1135772297_0" arrivalPos="4.72" arrivalSpeed="5.21" duration="158.00" routeLength="1481.22" waitingTime="0.00" waitingCount="0" stopTime="0.00" timeLoss="30.40" rerouteNo="0" devices="tripinfo_veh67" vType="motorcycle" speedFactor="0.94" vaporized=""/>
    <tripinfo id="veh47" depart="32.00" departLane="-40330575#0_1" departPos="15.53" departSpeed="0.00" departDelay="0.51" arrival="204.00" arrivalLane="-40330575#2_1" arrivalPos="59.38" arrivalSpeed="5.43" duration="172.00" routeLength="877.88" waitingTime="0.00" waitingCount="0" stopTime="0.00" timeLoss="12.73" rerouteNo="0" devices="tripinfo_veh47" vType="bicycle" speedFactor="1.00" vaporized=""/>
    <tripinfo id="veh140" depart="94.00" departLane="40236220#0_1" departPos="33.51" departSpeed="0.00" departDelay="0.20" arrival="205.00" arrivalLane="945794109_1" arrivalPos="21.82" arrivalSpeed="6.97" duration="111.00" routeLength="1107.72" waitingTime="0.00" waitingCount="0" stopTime="0.00" timeLoss="21.85" rerouteNo="0" devices="tripinfo_veh140" vType="passenger" speedFactor="0.96" vaporized=""/>
    <tripinfo id="veh153" depart="103.00" departLane="40330583#1_1" departPos="188.24" departSpeed="0.00" departDelay="0.49" arrival="205.00" arrivalLane="-40330575#2_1" arrivalPos="59.38" arrivalSpeed="7.95" duration="102.00" routeLength="909.42" waitingTime="0.00" waitingCount="0" stopTime="0.00" timeLoss="41.05" rerouteNo="0" devices="tripinfo_veh153" vType="passenger" speedFactor="1.07" vaporized=""/>
    <tripinfo id="veh106" depart="72.00" departLane="-1136289992_1" departPos="15.57" departSpeed="0.00" departDelay="0.98" arrival="206.00" arrivalLane="-40236144#1_1" arrivalPos="53.50" arrivalSpeed="13.49" duration="134.00" routeLength="1403.41" waitingTime="9.00" waitingCount="1" stopTime="0.00" timeLoss="32.24" rerouteNo="0" devices="tripinfo_veh106" vType="motorcycle" speedFactor="1.04" vaporized=""/>
    <tripinfo id="veh33" depart="23.00" departLane="-48736619_1" departPos="60.15" departSpeed="0.00" departDelay="0.89" arrival="207.00" arrivalLane="48797767#1_1" arrivalPos="62.09" arrivalSpeed="13.83" duration="184.00" routeLength="1130.46" waitingTime="65.00" waitingCount="2" stopTime="0.00" timeLoss="97.82" rerouteNo="0" devices="tripinfo_veh33" vType="emergency" speedFactor="1.00" vaporized=""/>
    <tripinfo id="veh25" depart="17.00" departLane="-222605084#1_1" departPos="0.01" departSpeed="0.00" departDelay="0.25" arrival="208.00" arrivalLane="48778516_1" arrivalPos="193.31" arrivalSpeed="13.65" duration="191.00" routeLength="1610.18" waitingTime="35.00" waitingCount="2" stopTime="0.00" timeLoss="62.73" rerouteNo="0" devices="tripinfo_veh25" vType="motorcycle" speedFactor="1.02" vaporized=""/>
    <tripinfo id="veh86" depart="58.00" departLane="354259933#3_1" departPos="32.23" departSpeed="0.00" departDelay="0.38" arrival="208.00" arrivalLane="859732801#1_1" arrivalPos="25.05" arrivalSpeed="11.69" duration="150.00" routeLength="1291.40" waitingTime="16.00" waitingCount="2" stopTime="0.00" timeLoss="39.33" rerouteNo="0" devices="tripinfo_veh86" vType="passenger" speedFactor="0.87" vaporized=""/>
    <tripinfo id="veh146" depart="98.00" departLane="353939574_0" departPos="178.20" departSpeed="0.00" departDelay="0.18" arrival="208.00" arrivalLane="995051712_1" arrivalPos="194.59" arrivalSpeed="13.88" duration="110.00" routeLength="1309.71" waitingTime="0.00" waitingCount="0" stopTime="0.00" timeLoss="14.40" rerouteNo="0" devices="tripinfo_veh146" vType="passenger" speedFactor="1.03" vaporized=""/>
    <tripinfo id="veh39" depart="27.00" departLane="-48778521#1_1" departPos="22.67" departSpeed="0.00" departDelay="0.87" arrival="209.00" arrivalLane="-40345956#0_1" arrivalPos="91.65" arrivalSpeed="13.44" duration="182.00" routeLength="2189.79" waitingTime="0.00" waitingCount="0" stopTime="0.00" timeLoss="23.22" rerouteNo="0" devices="tripinfo_veh39" vType="passenger" speedFactor="1.05" vaporized=""/>
    <tripinfo id="veh87" depart="59.00" departLane="383582505_0" departPos="36.97" departSpeed="0.00" departDelay="0.71" arrival="209.00" arrivalLane="-859728208#0_0" arrivalPos="24.68" arrivalSpeed="5.48" duration="150.00" routeLength="1115.15" waitingTime="0.00" waitingCount="0" stopTime="0.00" timeLoss="25.74" rerouteNo="0" devices="tripinfo_veh87" vType="delivery" speedFactor="1.01" vaporized=""/>
    <tripinfo id="veh31" depart="21.00" departLane="40305706#1_1" departPos="29.68" departSpeed="0.00" departDelay="0.23" arrival="210.00" arrivalLane="647677163_1" arrivalPos="73.51" arrivalSpeed="13.88" duration="189.00" routeLength="1778.88" waitingTime="19.00" waitingCount="3" stopTime="0.00" timeLoss="60.92" rerouteNo="0" devices="tripinfo_veh31" vType="passenger" speedFactor="1.04" vaporized=""/>
    <tripinfo id="veh12" depart="9.00" departLane="-1136283361_0" departPos="38.13" departSpeed="0.00" departDelay="0.96" arrival="211.00" arrivalLane="-48736640#0_1" arrivalPos="56.32" arrivalSpeed="13.80" duration="202.00" routeLength="1712.55" waitingTime="29.00" waitingCount="1" stopTime="0.00" timeLoss="65.08" rerouteNo="0" devices="tripinfo_veh12" vType="emergency" speedFactor="1.00" vaporized=""/>
    <tripinfo id="veh132" depart="89.00" departLane="859732802#1_0" departPos="6.82" departSpeed="0.00" departDelay="0.56" arrival="215.00" arrivalLane="-383582508#0_0" arrivalPos="10.60" arrivalSpeed="3.94" duration="126.00" routeLength="971.18" waitingTime="0.00" waitingCount="0" stopTime="0.00" timeLoss="22.46" rerouteNo="0" devices="tripinfo_veh132" vType="motorcycle" speedFactor="0.91" vaporized=""/>
    <tripinfo id="veh48" depart="33.00" departLane="43546053#0_1" departPos="48.41" departSpeed="0.00" departDelay="0.84" arrival="216.00" arrivalLane="-40236144#0_1" arrivalPos="70.18" arrivalSpeed="13.69" duration="183.00" routeLength="2142.12" waitingTime="0.00" waitingCount="0" stopTime="0.00" timeLoss="23.98" rerouteNo="0" devices="tripinfo_veh48" vType="delivery" speedFactor="0.99" vaporized=""/>
    <tripinfo id="veh165" depart="112.00" departLane="E15_1" departPos="24.01" departSpeed="0.00" departDelay="1.45" arrival="217.00" arrivalLane="-222609002#1_1" arrivalPos="24.71" arrivalSpeed="14.02" duration="105.00" routeLength="973.40" waitingTime="5.00" waitingCount="1" stopTime="0.00" timeLoss="30.24" rerouteNo="0" devices="tripinfo_veh165" vType="passenger" speedFactor="1.07" vaporized=""/>
    <tripinfo id="veh119" depart="80.00" departLane="-222609004#1_1" departPos="28.45" departSpeed="0.00" departDelay="0.27" arrival="219.00" arrivalLane="43544624#0_1" arrivalPos="295.29" arrivalSpeed="13.32" duration="139.00" routeLength="1554.23" waitingTime="1.00" waitingCount="1" stopTime="0.00" timeLoss="27.04" rerouteNo="0" devices="tripinfo_veh119" vType="motorcycle" speedFactor="1.04" vaporized=""/>
    <tripinfo id="veh136" depart="92.00" departLane="222605085#1_1" departPos="129.96" departSpeed="0.00" departDelay="0.88" arrival="219.00" arrivalLane="40330592_1" arrivalPos="133.23" arrivalSpeed="11.17" duration="127.00" routeLength="812.36" waitingTime="0.00" waitingCount="0" stopTime="0.00" timeLoss="57.79" rerouteNo="0" devices="tripinfo_veh136" vType="passenger" speedFactor="0.90" vaporized=""/>
    <tripinfo id="veh21" depart="15.00" departLane="223942064#0_0" departPos="157.15" departSpeed="0.00" departDelay="0.93" arrival="220.00" arrivalLane="-48778429#2_1" arrivalPos="146.93" arrivalSpeed="15.25" duration="205.00" routeLength="2795.89" waitingTime="0.00" waitingCount="0" stopTime="0.00" timeLoss="28.69" rerouteNo="0" devices="tripinfo_veh21" vType="passenger" speedFactor="1.15" vaporized=""/>
    <tripinfo id="veh54" depart="37.00" departLane="48778474#1_1" departPos="128.39" departSpeed="0.00" departDelay="0.82" arrival="220.00" arrivalLane="222605084#8_1" arrivalPos="2.30" arrivalSpeed="4.81" duration="183.00" routeLength="1901.31" waitingTime="0.00" waitingCount="0" stopTime="0.00" timeLoss="28.03" rerouteNo="0" devices="tripinfo_veh54" vType="passenger" speedFactor="1.06" vaporized=""/>
    <tripinfo id="veh112" depart="76.00" departLane="-1135772297_0" departPos="0.32" departSpeed="0.00" departDelay="0.96" arrival="220.00" arrivalLane="48736638#1_1" arrivalPos="89.48" arrivalSpeed="13.02" duration="144.00" routeLength="1054.87" waitingTime="26.00" waitingCount="2" stopTime="0.00" timeLoss="52.61" rerouteNo="0" devices="tripinfo_veh112" vType="delivery" speedFactor="1.01" vaporized=""/>
    <tripinfo id="veh126" depart="85.00" departLane="859732803#0_0" departPos="14.20" departSpeed="0.00" departDelay="0.58" arrival="220.00" arrivalLane="-43573769#1_1" arrivalPos="54.95" arrivalSpeed="12.56" duration="135.00" routeLength="1293.94" waitingTime="6.00" waitingCount="1" stopTime="0.00" timeLoss="26.06" rerouteNo="0" devices="tripinfo_veh126" vType="passenger" speedFactor="0.91" vaporized=""/>
    <tripinfo id="veh74" depart="50.00" departLane="143207979#0_1" departPos="6.48" departSpeed="0.00" departDelay="0.42" arrival="222.00" arrivalLane="945794109_1" arrivalPos="21.82" arrivalSpeed="8.93" duration="172.00" routeLength="1797.82" waitingTime="16.00" waitingCount="1" stopTime="0.00" timeLoss="55.00" rerouteNo="0" devices="tripinfo_veh74" vType="passenger" speedFactor="1.14" vaporized=""/>
    <tripinfo id="veh161" depart="108.00" departLane="-48778498#2_1" departPos="57.61" departSpeed="0.00" departDelay="0.13" arrival="224.00" arrivalLane="-43573547#1_1" arrivalPos="26.16" arrivalSpeed="11.37" duration="116.00" routeLength="743.73" waitingTime="28.00" waitingCount="1" stopTime="0.00" timeLoss="47.63" rerouteNo="0" devices="tripinfo_veh161" vType="passenger" speedFactor="0.83" vaporized=""/>
    <tripinfo id="veh11" depart="8.00" departLane="647741479_1" departPos="31.59" departSpeed="0.00" departDelay="0.63" arrival="225.00" arrivalLane="-223942064#0.371_0" arrivalPos="264.48" arrivalSpeed="13.40" duration="217.00" routeLength="2350.21" waitingTime="11.00" waitingCount="1" stopTime="0.00" timeLoss="38.93" rerouteNo="0" devices="tripinfo_veh11" vType="delivery" speedFactor="0.97" vaporized=""/>
    <tripinfo id="veh61" depart="41.00" departLane="401741889#0_1" departPos="138.14" departSpeed="0.00" departDelay="0.13" arrival="225.00" arrivalLane="43547256#2_1" arrivalPos="217.55" arrivalSpeed="13.73" duration="184.00" routeLength="2222.25" waitingTime="0.00" waitingCount="0" stopTime="0.00" timeLoss="22.78" rerouteNo="0" devices="tripinfo_veh61" vType="passenger" speedFactor="1.02" vaporized=""/>
    <tripinfo id="veh0" depart="0.00" departLane="-671386628#1_1" departPos="181.68" departSpeed="0.00" departDelay="0.00" arrival="227.00" arrivalLane="43546519#2_1" arrivalPos="8.00" arrivalSpeed="12.74" duration="227.00" routeLength="2204.48" waitingTime="15.00" waitingCount="1" stopTime="0.00" timeLoss="57.51" rerouteNo="0" devices="tripinfo_veh0" vType="motorcycle" speedFactor="0.98" vaporized=""/>
    <tripinfo id="veh43" depart="29.00" departLane="671642318#0_1" departPos="82.71" departSpeed="0.00" departDelay="0.19" arrival="227.00" arrivalLane="-223942064#0.371_0" arrivalPos="264.48" arrivalSpeed="13.53" duration="198.00" routeLength="2394.52" waitingTime="0.00" waitingCount="0" stopTime="0.00" timeLoss="19.72" rerouteNo="0" devices="tripinfo_veh43" vType="delivery" speedFactor="0.98" vaporized=""/>
    <tripinfo id="veh221" depart="149.00" departLane="859728205_0" departPos="28.59" departSpeed="0.00" departDelay="0.93" arrival="227.00" arrivalLane="994066251#1_0" arrivalPos="3.30" arrivalSpeed="3.92" duration="78.00" routeLength="459.38" waitingTime="0.00" waitingCount="0" stopTime="0.00" timeLoss="17.56" rerouteNo="0" devices="tripinfo_veh221" vType="motorcycle" speedFactor="0.96" vaporized=""/>
    <tripinfo id="veh59" depart="40.00" departLane="-492965073#5_2" departPos="35.62" departSpeed="0.00" departDelay="0.47" arrival="229.00" arrivalLane="48778449#1_1" arrivalPos="70.68" arrivalSpeed="14.55" duration="189.00" routeLength="488.99" waitingTime="131.00" waitingCount="2" stopTime="0.00" timeLoss="153.05" rerouteNo="0" devices="tripinfo_veh59" vType="passenger" speedFactor="1.09" vaporized=""/>
    <tripinfo id="veh94" depart="63.00" departLane="-859732802#0_0" departPos="4.63" departSpeed="0.00" departDelay="0.02" arrival="232.00" arrivalLane="48778511_1" arrivalPos="75.86" arrivalSpeed="13.21" duration="169.00" routeLength="1825.22" waitingTime="0.00" waitingCount="0" stopTime="0.00" timeLoss="28.58" rerouteNo="0" devices="tripinfo_veh94" vType="motorcycle" speedFactor="0.98" vaporized=""/>
    <tripinfo id="veh260" depart="175.00" departLane="-67736383_1" departPos="2.46" departSpeed="0.00" departDelay="0.80" arrival="232.00" arrivalLane="48778525#2_1" arrivalPos="124.59" arrivalSpeed="12.68" duration="57.00" routeLength="531.85" waitingTime="0.00" waitingCount="0" stopTime="0.00" timeLoss="14.86" rerouteNo="0" devices="tripinfo_veh260" vType="emergency" speedFactor="1.00" vaporized=""/>