<?xml version="1.0" encoding="UTF-8"?>

<!-- generated on 2025-06-15 21:50:52 by Eclipse SUMO sumo Version 1.22.0
<sumoConfiguration xmlns:xsi="http://www.w3.org/2001/XMLSchema-instance" xsi:noNamespaceSchemaLocation="http://sumo.dlr.de/xsd/sumoConfiguration.xsd">

    <input>
        <net-file value="E:/licenta/oras-mediu/2025-06-05-11-45-23\osm.net.xml"/>
        <route-files value="E:/licenta/oras-mediu/2025-06-05-11-45-23\full.rou.xml,E:/licenta/oras-mediu/2025-06-05-11-45-23\ ped.rou.xml,E:/licenta/oras-mediu/2025-06-05-11-45-23\ truck.rou.xml"/>
        <additional-files value="E:/licenta/oras-mediu/2025-06-05-11-45-23\osm.poly.xml,E:/licenta/oras-mediu/2025-06-05-11-45-23\ vtypes.xml"/>
    </input>

    <output>
        <summary-output value="E:/licenta/oras-mediu/2025-06-05-11-45-23\summary.xml"/>
        <tripinfo-output value="E:/licenta/oras-mediu/2025-06-05-11-45-23\tripinfo.xml"/>
    </output>

    <processing>
        <ignore-route-errors value="true"/>
        <tls.actuated.jam-threshold value="30"/>
    </processing>

    <routing>
        <device.rerouting.adaptation-steps value="18"/>
        <device.rerouting.adaptation-interval value="10"/>
    </routing>

    <report>
        <verbose value="true"/>
        <duration-log.statistics value="true"/>
        <no-step-log value="true"/>
    </report>

    <traci_server>
        <remote-port value="64877"/>
    </traci_server>

    <gui_only>
        <gui-settings-file value="E:/licenta/oras-mediu/2025-06-05-11-45-23\osm.view.xml"/>
    </gui_only>

</sumoConfiguration>
-->

<tripinfos xmlns:xsi="http://www.w3.org/2001/XMLSchema-instance" xsi:noNamespaceSchemaLocation="http://sumo.dlr.de/xsd/tripinfo_file.xsd">
    <tripinfo id="veh102" depart="43.00" departLane="40314583#0_1" departPos="165.23" departSpeed="0.00" departDelay="0.16" arrival="64.00" arrivalLane="-48736618_1" arrivalPos="45.60" arrivalSpeed="11.06" duration="21.00" routeLength="146.95" waitingTime="0.00" waitingCount="0" stopTime="0.00" timeLoss="6.80" rerouteNo="0" devices="tripinfo_veh102" vType="passenger" speedFactor="0.89" vaporized=""/>
    <tripinfo id="veh69" depart="29.00" departLane="-222605084#2_1" departPos="1.23" departSpeed="0.00" departDelay="0.02" arrival="71.00" arrivalLane="222605086_1" arrivalPos="27.07" arrivalSpeed="5.20" duration="42.00" routeLength="219.64" waitingTime="0.00" waitingCount="0" stopTime="0.00" timeLoss="6.01" rerouteNo="0" devices="tripinfo_veh69" vType="passenger" speedFactor="1.01" vaporized=""/>
    <tripinfo id="veh89" depart="38.00" departLane="250295380#0_1" departPos="5.31" departSpeed="0.00" departDelay="0.62" arrival="95.00" arrivalLane="43546688#0_1" arrivalPos="19.83" arrivalSpeed="9.94" duration="57.00" routeLength="550.42" waitingTime="0.00" waitingCount="0" stopTime="0.00" timeLoss="21.54" rerouteNo="0" devices="tripinfo_veh89" vType="passenger" speedFactor="1.25" vaporized=""/>
    <tripinfo id="veh40" depart="17.00" departLane="43544001#12_1" departPos="16.28" departSpeed="0.00" departDelay="0.20" arrival="97.00" arrivalLane="-48778517#0_1" arrivalPos="43.62" arrivalSpeed="8.39" duration="80.00" routeLength="813.23" waitingTime="0.00" waitingCount="0" stopTime="0.00" timeLoss="17.59" rerouteNo="0" devices="tripinfo_veh40" vType="passenger" speedFactor="1.06" vaporized=""/>
    <tripinfo id="veh16" depart="7.00" departLane="48736658_1" departPos="56.10" departSpeed="0.00" departDelay="0.28" arrival="98.00" arrivalLane="-33913538#9_1" arrivalPos="32.77" arrivalSpeed="12.08" duration="91.00" routeLength="897.11" waitingTime="0.00" waitingCount="0" stopTime="0.00" timeLoss="15.02" rerouteNo="0" devices="tripinfo_veh16" vType="passenger" speedFactor="0.89" vaporized=""/>
    <tripinfo id="veh30" depart="13.00" departLane="222605084#5_1" departPos="5.94" departSpeed="0.00" departDelay="0.40" arrival="99.00" arrivalLane="40330592_1" arrivalPos="133.23" arrivalSpeed="14.79" duration="86.00" routeLength="626.63" waitingTime="0.00" waitingCount="0" stopTime="0.00" timeLoss="17.64" rerouteNo="0" devices="tripinfo_veh30" vType="passenger" speedFactor="1.10" vaporized=""/>
    <tripinfo id="veh57" depart="24.00" departLane="-859735386#1_0" departPos="52.22" departSpeed="0.00" departDelay="0.06" arrival="101.00" arrivalLane="48778524#4_1" arrivalPos="30.32" arrivalSpeed="14.02" duration="77.00" routeLength="853.84" waitingTime="0.00" waitingCount="0" stopTime="0.00" timeLoss="13.22" rerouteNo="0" devices="tripinfo_veh57" vType="passenger" speedFactor="1.06" vaporized=""/>
    <tripinfo id="veh132" depart="56.00" departLane="-48736658_1" departPos="48.97" departSpeed="0.00" departDelay="0.56" arrival="102.00" arrivalLane="1364605473_0" arrivalPos="48.68" arrivalSpeed="3.66" duration="46.00" routeLength="286.58" waitingTime="0.00" waitingCount="0" stopTime="0.00" timeLoss="10.77" rerouteNo="0" devices="tripinfo_veh132" vType="passenger" speedFactor="0.80" vaporized=""/>
    <tripinfo id="veh47" depart="20.00" departLane="-48736656#2_1" departPos="18.54" departSpeed="0.00" departDelay="0.26" arrival="108.00" arrivalLane="-40299271_1" arrivalPos="40.77" arrivalSpeed="12.40" duration="88.00" routeLength="868.43" waitingTime="0.00" waitingCount="0" stopTime="0.00" timeLoss="20.88" rerouteNo="0" devices="tripinfo_veh47" vType="passenger" speedFactor="1.02" vaporized=""/>
    <tripinfo id="veh20" depart="9.00" departLane="1136119743#0_1" departPos="7.38" departSpeed="0.00" departDelay="0.60" arrival="109.00" arrivalLane="48778503#1_1" arrivalPos="56.23" arrivalSpeed="13.81" duration="100.00" routeLength="1039.94" waitingTime="0.00" waitingCount="0" stopTime="0.00" timeLoss="14.78" rerouteNo="0" devices="tripinfo_veh20" vType="passenger" speedFactor="1.03" vaporized=""/>
    <tripinfo id="veh107" depart="45.00" departLane="40299739#2_1" departPos="38.59" departSpeed="0.00" departDelay="0.06" arrival="110.00" arrivalLane="48736637_1" arrivalPos="17.08" arrivalSpeed="9.83" duration="65.00" routeLength="698.56" waitingTime="0.00" waitingCount="0" stopTime="0.00" timeLoss="13.26" rerouteNo="0" devices="tripinfo_veh107" vType="passenger" speedFactor="1.03" vaporized=""/>
    <tripinfo id="veh164" depart="69.00" departLane="984521612#0_0" departPos="11.67" departSpeed="0.00" departDelay="0.12" arrival="113.00" arrivalLane="-1136301818_1" arrivalPos="34.45" arrivalSpeed="13.57" duration="44.00" routeLength="328.22" waitingTime="1.00" waitingCount="1" stopTime="0.00" timeLoss="16.70" rerouteNo="0" devices="tripinfo_veh164" vType="passenger" speedFactor="1.03" vaporized=""/>
    <tripinfo id="veh0" depart="0.00" departLane="-48736624#0_1" departPos="100.42" departSpeed="0.00" departDelay="0.00" arrival="114.00" arrivalLane="-383582501_0" arrivalPos="63.46" arrivalSpeed="4.00" duration="114.00" routeLength="1105.55" waitingTime="0.00" waitingCount="0" stopTime="0.00" timeLoss="21.36" rerouteNo="0" devices="tripinfo_veh0" vType="motorcycle" speedFactor="0.98" vaporized=""/>
    <tripinfo id="veh41" depart="18.00" departLane="43546460#8_1" departPos="33.39" departSpeed="0.00" departDelay="0.78" arrival="125.00" arrivalLane="-994066252#1_0" arrivalPos="52.62" arrivalSpeed="5.80" duration="107.00" routeLength="1320.79" waitingTime="0.00" waitingCount="0" stopTime="0.00" timeLoss="16.93" rerouteNo="0" devices="tripinfo_veh41" vType="passenger" speedFactor="1.17" vaporized=""/>
    <tripinfo id="veh3" depart="2.00" departLane="-40330571#3_1" departPos="8.72" departSpeed="0.00" departDelay="0.74" arrival="126.00" arrivalLane="945794109_1" arrivalPos="21.82" arrivalSpeed="6.74" duration="124.00" routeLength="1262.76" waitingTime="0.00" waitingCount="0" stopTime="0.00" timeLoss="20.51" rerouteNo="0" devices="tripinfo_veh3" vType="passenger" speedFactor="0.94" vaporized=""/>
    <tripinfo id="veh27" depart="12.00" departLane="859728206_0" departPos="11.44" departSpeed="0.00" departDelay="0.66" arrival="131.00" arrivalLane="-43546460#8_1" arrivalPos="96.42" arrivalSpeed="12.32" duration="119.00" routeLength="1190.51" waitingTime="0.00" waitingCount="0" stopTime="0.00" timeLoss="13.24" rerouteNo="0" devices="tripinfo_veh27" vType="passenger" speedFactor="0.97" vaporized=""/>
    <tripinfo id="veh129" depart="55.00" departLane="945794108_1" departPos="12.43" departSpeed="0.00" departDelay="0.82" arrival="135.00" arrivalLane="-353939570#8_2" arrivalPos="84.62" arrivalSpeed="12.73" duration="80.00" routeLength="906.95" waitingTime="0.00" waitingCount="0" stopTime="0.00" timeLoss="12.29" rerouteNo="0" devices="tripinfo_veh129" vType="delivery" speedFactor="1.00" vaporized=""/>
    <tripinfo id="veh2" depart="1.00" departLane="264868333_1" departPos="29.92" departSpeed="0.00" departDelay="0.16" arrival="137.00" arrivalLane="273836978#0_1" arrivalPos="13.78" arrivalSpeed="9.71" duration="136.00" routeLength="1584.41" waitingTime="0.00" waitingCount="0" stopTime="0.00" timeLoss="24.94" rerouteNo="0" devices="tripinfo_veh2" vType="passenger" speedFactor="1.08" vaporized=""/>
    <tripinfo id="veh36" depart="16.00" departLane="250295384_1" departPos="8.32" departSpeed="0.00" departDelay="0.88" arrival="138.00" arrivalLane="-354252043_1" arrivalPos="59.78" arrivalSpeed="14.38" duration="122.00" routeLength="1458.10" waitingTime="0.00" waitingCount="0" stopTime="0.00" timeLoss="21.13" rerouteNo="0" devices="tripinfo_veh36" vType="passenger" speedFactor="1.09" vaporized=""/>
    <tripinfo id="veh314" depart="132.00" departLane="859728208#0_0" departPos="9.24" departSpeed="0.00" departDelay="0.12" arrival="144.00" arrivalLane="859728207_0" arrivalPos="18.62" arrivalSpeed="5.15" duration="12.00" routeLength="54.10" waitingTime="0.00" waitingCount="0" stopTime="0.00" timeLoss="1.83" rerouteNo="0" devices="tripinfo_veh314" vType="emergency" speedFactor="1.00" vaporized=""/>
    <tripinfo id="veh177" depart="75.00" departLane="-43544197#8_1" departPos="108.89" departSpeed="0.00" departDelay="0.66" arrival="145.00" arrivalLane="43544179#6_1" arrivalPos="35.50" arrivalSpeed="10.92" duration="70.00" routeLength="694.73" waitingTime="0.00" waitingCount="0" stopTime="0.00" timeLoss="15.23" rerouteNo="0" devices="tripinfo_veh177" vType="passenger" speedFactor="0.96" vaporized=""/>
    <tripinfo id="veh122" depart="53.00" departLane="-40236203#2_1" departPos="6.17" departSpeed="0.00" departDelay="1.76" arrival="148.00" arrivalLane="-43547256#2_1" arrivalPos="217.44" arrivalSpeed="11.70" duration="95.00" routeLength="1094.64" waitingTime="0.00" waitingCount="0" stopTime="0.00" timeLoss="17.61" rerouteNo="0" devices="tripinfo_veh122" vType="motorcycle" speedFactor="1.04" vaporized=""/>
    <tripinfo id="veh54" depart="23.00" departLane="40334244#1_1" departPos="9.46" departSpeed="0.00" departDelay="0.32" arrival="149.00" arrivalLane="492965073#0_2" arrivalPos="173.89" arrivalSpeed="12.67" duration="126.00" routeLength="1373.10" waitingTime="0.00" waitingCount="0" stopTime="0.00" timeLoss="18.52" rerouteNo="0" devices="tripinfo_veh54" vType="passenger" speedFactor="0.95" vaporized=""/>
    <tripinfo id="veh33" depart="14.00" departLane="945794111_1" departPos="30.78" departSpeed="0.00" departDelay="0.14" arrival="150.00" arrivalLane="-40269009#0_1" arrivalPos="20.68" arrivalSpeed="11.14" duration="136.00" routeLength="1222.74" waitingTime="2.00" waitingCount="2" stopTime="0.00" timeLoss="41.25" rerouteNo="0" devices="tripinfo_veh33" vType="passenger" speedFactor="1.07" vaporized=""/>
    <personinfo id="ped4" depart="20.00" type="DEFAULT_PEDTYPE" speedFactor="1.07" duration="131.00" waitingTime="0.00" timeLoss="15.97" traveltime="131.00">
        <walk depart="20.00" departPos="0.00" arrival="151.00" arrivalPos="12.41" duration="131.00" routeLength="171.74" timeLoss="15.97" maxSpeed="1.49"/>
    </personinfo>
    <tripinfo id="veh191" depart="82.00" departLane="-143207982#0_1" departPos="24.31" departSpeed="0.00" departDelay="1.78" arrival="151.00" arrivalLane="-48736614#0_1" arrivalPos="85.72" arrivalSpeed="13.28" duration="69.00" routeLength="566.41" waitingTime="1.00" waitingCount="1" stopTime="0.00" timeLoss="23.10" rerouteNo="0" devices="tripinfo_veh191" vType="delivery" speedFactor="0.99" vaporized=""/>
    <tripinfo id="veh152" depart="64.00" departLane="48778500#2_1" departPos="152.24" departSpeed="0.00" departDelay="0.16" arrival="154.00" arrivalLane="-40236220#2_1" arrivalPos="24.83" arrivalSpeed="11.40" duration="90.00" routeLength="1166.00" waitingTime="0.00" waitingCount="0" stopTime="0.00" timeLoss="17.09" rerouteNo="0" devices="tripinfo_veh152" vType="passenger" speedFactor="1.18" vaporized=""/>
    <tripinfo id="veh220" depart="93.00" departLane="-1136289992_1" departPos="10.47" departSpeed="0.00" departDelay="0.60" arrival="154.00" arrivalLane="-43546935#2_1" arrivalPos="44.28" arrivalSpeed="12.88" duration="61.00" routeLength="568.40" waitingTime="0.00" waitingCount="0" stopTime="0.00" timeLoss="12.18" rerouteNo="0" devices="tripinfo_veh220" vType="passenger" speedFactor="0.94" vaporized=""/>
    <tripinfo id="veh147" depart="62.00" departLane="996984235_0" departPos="11.59" departSpeed="0.00" departDelay="0.26" arrival="156.00" arrivalLane="859734513_0" arrivalPos="94.32" arrivalSpeed="5.18" duration="94.00" routeLength="947.26" waitingTime="0.00" waitingCount="0" stopTime="0.00" timeLoss="10.38" rerouteNo="0" devices="tripinfo_veh147" vType="passenger" speedFactor="1.03" vaporized=""/>
    <tripinfo id="veh11" depart="5.00" departLane="40304754#5_1" departPos="40.68" departSpeed="0.00" departDelay="0.38" arrival="157.00" arrivalLane="-40334245#1_1" arrivalPos="44.55" arrivalSpeed="14.11" duration="152.00" routeLength="1832.52" waitingTime="0.00" waitingCount="0" stopTime="0.00" timeLoss="21.15" rerouteNo="0" devices="tripinfo_veh11" vType="passenger" speedFactor="1.04" vaporized=""/>
    <tripinfo id="veh179" depart="76.00" departLane="-996486454#0_1" departPos="11.13" departSpeed="0.00" departDelay="0.82" arrival="157.00" arrivalLane="-143207979#8_1" arrivalPos="38.62" arrivalSpeed="13.21" duration="81.00" routeLength="881.90" waitingTime="0.00" waitingCount="0" stopTime="0.00" timeLoss="14.80" rerouteNo="0" devices="tripinfo_veh179" vType="motorcycle" speedFactor="1.01" vaporized=""/>
    <tripinfo id="veh91" depart="39.00" departLane="-48778429#1_1" departPos="34.39" departSpeed="0.00" departDelay="0.78" arrival="162.00" arrivalLane="43546570#0_1" arrivalPos="43.31" arrivalSpeed="12.78" duration="123.00" routeLength="1379.32" waitingTime="0.00" waitingCount="0" stopTime="0.00" timeLoss="21.70" rerouteNo="0" devices="tripinfo_veh91" vType="delivery" speedFactor="1.01" vaporized=""/>
    <tripinfo id="veh119" depart="50.00" departLane="-1136283361_0" departPos="36.46" departSpeed="0.00" departDelay="0.02" arrival="163.00" arrivalLane="256555440#0_1" arrivalPos="59.99" arrivalSpeed="16.35" duration="113.00" routeLength="1136.23" waitingTime="7.00" waitingCount="1" stopTime="0.00" timeLoss="37.12" rerouteNo="0" devices="tripinfo_veh119" vType="passenger" speedFactor="1.21" vaporized=""/>
    <tripinfo id="veh139" depart="59.00" departLane="-40299271_1" departPos="28.95" departSpeed="0.00" departDelay="0.62" arrival="165.00" arrivalLane="48736639#1_1" arrivalPos="23.89" arrivalSpeed="10.85" duration="106.00" routeLength="1041.31" waitingTime="0.00" waitingCount="0" stopTime="0.00" timeLoss="17.45" rerouteNo="0" devices="tripinfo_veh139" vType="passenger" speedFactor="0.90" vaporized=""/>
    <tripinfo id="veh342" depart="144.00" departLane="43546519#2_1" departPos="7.03" departSpeed="0.00" departDelay="0.36" arrival="166.00" arrivalLane="48736647#0_1" arrivalPos="51.73" arrivalSpeed="12.71" duration="22.00" routeLength="170.60" waitingTime="0.00" waitingCount="0" stopTime="0.00" timeLoss="6.61" rerouteNo="0" devices="tripinfo_veh342" vType="passenger" speedFactor="0.93" vaporized=""/>
    <tripinfo id="veh209" depart="88.00" departLane="-43544179#7_1" departPos="22.04" departSpeed="0.00" departDelay="0.22" arrival="168.00" arrivalLane="48778515_1" arrivalPos="19.64" arrivalSpeed="5.64" duration="80.00" routeLength="598.17" waitingTime="4.00" waitingCount="2" stopTime="0.00" timeLoss="20.76" rerouteNo="0" devices="tripinfo_veh209" vType="passenger" speedFactor="0.80" vaporized=""/>
    <tripinfo id="veh17" depart="8.00" departLane="40304754#2_1" departPos="40.20" departSpeed="0.00" departDelay="0.86" arrival="170.00" arrivalLane="43546935#3_1" arrivalPos="13.61" arrivalSpeed="13.86" duration="162.00" routeLength="1841.83" waitingTime="0.00" waitingCount="0" stopTime="0.00" timeLoss="27.27" rerouteNo="0" devices="tripinfo_veh17" vType="passenger" speedFactor="1.01" vaporized=""/>
    <tripinfo id="veh52" depart="22.00" departLane="-48778449#2_1" departPos="49.30" departSpeed="0.00" departDelay="0.16" arrival="170.00" arrivalLane="48778489#0_1" arrivalPos="265.37" arrivalSpeed="12.81" duration="148.00" routeLength="1115.43" waitingTime="45.00" waitingCount="1" stopTime="0.00" timeLoss="61.83" rerouteNo="0" devices="tripinfo_veh52" vType="passenger" speedFactor="0.96" vaporized=""/>
    <tripinfo id="veh170" depart="72.00" departLane="-48778503#1_1" departPos="4.70" departSpeed="0.00" departDelay="0.60" arrival="170.00" arrivalLane="-43544179#10_1" arrivalPos="22.73" arrivalSpeed="11.10" duration="98.00" routeLength="891.98" waitingTime="0.00" waitingCount="0" stopTime="0.00" timeLoss="13.21" rerouteNo="0" devices="tripinfo_veh170" vType="passenger" speedFactor="0.80" vaporized=""/>
    <tripinfo id="veh145" depart="61.00" departLane="-48778521#1_1" departPos="18.42" departSpeed="0.00" departDelay="0.10" arrival="171.00" arrivalLane="-67712683_1" arrivalPos="77.22" arrivalSpeed="13.59" duration="110.00" routeLength="1277.93" waitingTime="0.00" waitingCount="0" stopTime="0.00" timeLoss="17.72" rerouteNo="0" devices="tripinfo_veh145" vType="motorcycle" speedFactor="1.08" vaporized=""/>
    <tripinfo id="veh55" depart="24.00" departLane="-40334244#3_1" departPos="7.50" departSpeed="0.00" departDelay="0.90" arrival="172.00" arrivalLane="-1136119743#0_1" arrivalPos="24.46" arrivalSpeed="8.22" duration="148.00" routeLength="1293.45" waitingTime="22.00" waitingCount="1" stopTime="0.00" timeLoss="43.11" rerouteNo="0" devices="tripinfo_veh55" vType="passenger" speedFactor="1.02" vaporized=""/>
    <tripinfo id="veh83" depart="35.00" departLane="40305706#0_1" departPos="23.84" departSpeed="0.00" departDelay="0.14" arrival="173.00" arrivalLane="-859728208#0_0" arrivalPos="24.68" arrivalSpeed="5.37" duration="138.00" routeLength="1398.23" waitingTime="1.00" waitingCount="1" stopTime="0.00" timeLoss="24.05" rerouteNo="0" devices="tripinfo_veh83" vType="passenger" speedFactor="1.06" vaporized=""/>
    <tripinfo id="veh251" depart="106.00" departLane="48797765#0_1" departPos="10.57" departSpeed="0.00" departDelay="0.58" arrival="174.00" arrivalLane="48778446#0_1" arrivalPos="56.83" arrivalSpeed="13.42" duration="68.00" routeLength="612.69" waitingTime="0.00" waitingCount="0" stopTime="0.00" timeLoss="14.23" rerouteNo="0" devices="tripinfo_veh251" vType="emergency" speedFactor="1.00" vaporized=""/>
    <tripinfo id="veh39" depart="17.00" departLane="289113877#0_1" departPos="180.73" departSpeed="0.00" departDelay="0.62" arrival="175.00" arrivalLane="-43547256#1_1" arrivalPos="152.01" arrivalSpeed="11.01" duration="158.00" routeLength="1639.36" waitingTime="0.00" waitingCount="0" stopTime="0.00" timeLoss="19.25" rerouteNo="0" devices="tripinfo_veh39" vType="passenger" speedFactor="0.88" vaporized=""/>
    <tripinfo id="veh120" depart="51.00" departLane="-48797773_1" departPos="6.17" departSpeed="0.00" departDelay="0.60" arrival="175.00" arrivalLane="273835686#0_1" arrivalPos="75.56" arrivalSpeed="11.89" duration="124.00" routeLength="1051.29" waitingTime="3.00" waitingCount="1" stopTime="0.00" timeLoss="31.35" rerouteNo="0" devices="tripinfo_veh120" vType="passenger" speedFactor="0.89" vaporized=""/>
    <tripinfo id="veh167" depart="71.00" departLane="994066251#1_0" departPos="1.63" departSpeed="0.00" departDelay="0.86" arrival="175.00" arrivalLane="48797769_1" arrivalPos="15.35" arrivalSpeed="13.82" duration="104.00" routeLength="1225.56" waitingTime="0.00" waitingCount="0" stopTime="0.00" timeLoss="13.61" rerouteNo="0" devices="tripinfo_veh167" vType="emergency" speedFactor="1.00" vaporized=""/>
    <tripinfo id="veh250" depart="105.00" departLane="33909936#2_1" departPos="38.28" departSpeed="0.00" departDelay="0.00" arrival="175.00" arrivalLane="-1136284448_1" arrivalPos="34.50" arrivalSpeed="6.60" duration="70.00" routeLength="534.53" waitingTime="3.00" waitingCount="1" stopTime="0.00" timeLoss="18.27" rerouteNo="0" devices="tripinfo_veh250" vType="passenger" speedFactor="0.83" vaporized=""/>
    <personinfo id="ped23" depart="115.00" type="DEFAULT_PEDTYPE" speedFactor="1.05" duration="63.00" waitingTime="0.00" timeLoss="6.26" traveltime="63.00">
        <walk depart="115.00" departPos="0.00" arrival="178.00" arrivalPos="45.94" duration="63.00" routeLength="82.59" timeLoss="6.26" maxSpeed="1.46"/>
    </personinfo>
    <tripinfo id="veh70" depart="30.00" departLane="273835686#0_1" departPos="63.75" departSpeed="0.00" departDelay="0.60" arrival="178.00" arrivalLane="-40299264#0_1" arrivalPos="72.08" arrivalSpeed="12.10" duration="148.00" routeLength="1067.00" waitingTime="32.00" waitingCount="1" stopTime="0.00" timeLoss="60.60" rerouteNo="0" devices="tripinfo_veh70" vType="motorcycle" speedFactor="0.94" vaporized=""/>
    <tripinfo id="veh178" depart="75.00" departLane="-40236228#1_1" departPos="6.14" departSpeed="0.00" departDelay="0.24" arrival="178.00" arrivalLane="48778503#1_1" arrivalPos="56.23" arrivalSpeed="13.44" duration="103.00" routeLength="1168.05" waitingTime="0.00" waitingCount="0" stopTime="0.00" timeLoss="14.30" rerouteNo="0" devices="tripinfo_veh178" vType="passenger" speedFactor="0.97" vaporized=""/>
    <tripinfo id="veh237" depart="100.00" departLane="250295513_1" departPos="17.50" departSpeed="0.00" departDelay="0.46" arrival="178.00" arrivalLane="-48797767#2_1" arrivalPos="15.37" arrivalSpeed="10.30" duration="78.00" routeLength="801.01" waitingTime="0.00" waitingCount="0" stopTime="0.00" timeLoss="13.97" rerouteNo="0" devices="tripinfo_veh237" vType="passenger" speedFactor="0.97" vaporized=""/>
    <tripinfo id="veh335" depart="141.00" departLane="-1015948619_0" departPos="9.60" departSpeed="0.00" departDelay="0.30" arrival="179.00" arrivalLane="-43544138#7_1" arrivalPos="43.93" arrivalSpeed="13.81" duration="38.00" routeLength="357.00" waitingTime="0.00" waitingCount="0" stopTime="0.00" timeLoss="6.14" rerouteNo="0" devices="tripinfo_veh335" vType="emergency" speedFactor="1.00" vaporized=""/>
    <tripinfo id="veh24" depart="11.00" departLane="859728208#2_0" departPos="35.42" departSpeed="0.00" departDelay="0.92" arrival="181.00" arrivalLane="-383582513_0" arrivalPos="62.69" arrivalSpeed="5.83" duration="170.00" routeLength="1884.90" waitingTime="0.00" waitingCount="0" stopTime="0.00" timeLoss="31.24" rerouteNo="0" devices="tripinfo_veh24" vType="passenger" speedFactor="1.12" vaporized=""/>
    <tripinfo id="veh261" depart="110.00" departLane="40266909#0_1" departPos="45.07" departSpeed="0.00" departDelay="0.38" arrival="181.00" arrivalLane="-945793486#1_0" arrivalPos="53.92" arrivalSpeed="5.66" duration="71.00" routeLength="621.82" waitingTime="2.00" waitingCount="1" stopTime="0.00" timeLoss="22.02" rerouteNo="0" devices="tripinfo_veh261" vType="passenger" speedFactor="1.13" vaporized=""/>
    <tripinfo id="veh136" depart="58.00" departLane="40330571#2_1" departPos="9.72" departSpeed="0.00" departDelay="0.88" arrival="182.00" arrivalLane="-40330557#3_1" arrivalPos="31.45" arrivalSpeed="14.75" duration="124.00" routeLength="1319.85" waitingTime="5.00" waitingCount="2" stopTime="0.00" timeLoss="36.36" rerouteNo="0" devices="tripinfo_veh136" vType="passenger" speedFactor="1.13" vaporized=""/>
    <tripinfo id="veh165" depart="70.00" departLane="-1205541343#1_1" departPos="2.23" departSpeed="0.00" departDelay="0.70" arrival="183.00" arrivalLane="-671642318#1_1" arrivalPos="42.41" arrivalSpeed="13.06" duration="113.00" routeLength="1188.68" waitingTime="2.00" waitingCount="1" stopTime="0.00" timeLoss="16.60" rerouteNo="0" devices="tripinfo_veh165" vType="emergency" speedFactor="1.00" vaporized=""/>
    <personinfo id="ped25" depart="125.00" type="DEFAULT_PEDTYPE" speedFactor="0.90" duration="60.00" waitingTime="0.00" timeLoss="10.73" traveltime="60.00">
        <walk depart="125.00" departPos="0.00" arrival="185.00" arrivalPos="13.21" duration="60.00" routeLength="61.38" timeLoss="10.73" maxSpeed="1.25"/>
    </personinfo>
    <tripinfo id="veh32" depart="14.00" departLane="43546053#0_1" departPos="155.50" departSpeed="0.00" departDelay="0.56" arrival="185.00" arrivalLane="984508802_0" arrivalPos="57.38" arrivalSpeed="5.11" duration="171.00" routeLength="1826.81" waitingTime="0.00" waitingCount="0" stopTime="0.00" timeLoss="27.69" rerouteNo="0" devices="tripinfo_veh32" vType="passenger" speedFactor="1.03" vaporized=""/>
    <personinfo id="ped28" depart="140.00" type="DEFAULT_PEDTYPE" speedFactor="0.94" duration="46.00" waitingTime="0.00" timeLoss="5.03" traveltime="46.00">
        <walk depart="140.00" departPos="0.00" arrival="186.00" arrivalPos="5.99" duration="46.00" routeLength="53.32" timeLoss="5.03" maxSpeed="1.30"/>
    </personinfo>
    <tripinfo id="veh304" depart="128.00" departLane="48736613#2_1" departPos="84.11" departSpeed="0.00" departDelay="0.32" arrival="186.00" arrivalLane="-492965073#4_2" arrivalPos="201.94" arrivalSpeed="14.00" duration="58.00" routeLength="731.16" waitingTime="0.00" waitingCount="0" stopTime="0.00" timeLoss="9.65" rerouteNo="0" devices="tripinfo_veh304" vType="motorcycle" speedFactor="1.12" vaporized=""/>
    <tripinfo id="veh239" depart="101.00" departLane="43544138#0_1" departPos="24.77" departSpeed="0.00" departDelay="0.62" arrival="190.00" arrivalLane="-43573573#2_1" arrivalPos="202.87" arrivalSpeed="15.21" duration="89.00" routeLength="1011.34" waitingTime="1.00" waitingCount="1" stopTime="0.00" timeLoss="22.20" rerouteNo="0" devices="tripinfo_veh239" vType="passenger" speedFactor="1.14" vaporized=""/>
    <personinfo id="ped26" depart="130.00" type="DEFAULT_PEDTYPE" speedFactor="0.92" duration="61.00" waitingTime="0.00" timeLoss="15.28" traveltime="61.00">
        <walk depart="130.00" departPos="0.00" arrival="191.00" arrivalPos="17.31" duration="61.00" routeLength="58.36" timeLoss="15.28" maxSpeed="1.28"/>
    </personinfo>
    <tripinfo id="veh60" depart="26.00" departLane="-48736641_1" departPos="9.68" departSpeed="0.00" departDelay="0.80" arrival="192.00" arrivalLane="-859726677#1_1" arrivalPos="0.20" arrivalSpeed="5.64" duration="166.00" routeLength="2095.78" waitingTime="0.00" waitingCount="0" stopTime="0.00" timeLoss="16.30" rerouteNo="0" devices="tripinfo_veh60" vType="passenger" speedFactor="1.03" vaporized=""/>
    <tripinfo id="veh12" depart="6.00" departLane="-43573573#1_1" departPos="0.81" departSpeed="0.00" departDelay="0.96" arrival="194.00" arrivalLane="530103972_1" arrivalPos="49.14" arrivalSpeed="2.39" duration="188.00" routeLength="1964.18" waitingTime="0.00" waitingCount="0" stopTime="0.00" timeLoss="25.54" rerouteNo="0" devices="tripinfo_veh12" vType="delivery" speedFactor="0.97" vaporized=""/>
    <tripinfo id="veh230" depart="97.00" departLane="-43573547#1_1" departPos="4.86" departSpeed="0.00" departDelay="0.40" arrival="197.00" arrivalLane="-40236144#0_1" arrivalPos="70.18" arrivalSpeed="13.98" duration="100.00" routeLength="1220.34" waitingTime="0.00" waitingCount="0" stopTime="0.00" timeLoss="13.38" rerouteNo="0" devices="tripinfo_veh230" vType="passenger" speedFactor="1.05" vaporized=""/>
    <tripinfo id="veh271" depart="115.00" departLane="-647762524_1" departPos="31.59" departSpeed="0.00" departDelay="1.18" arrival="199.00" arrivalLane="40236228#1_1" arrivalPos="51.45" arrivalSpeed="13.32" duration="84.00" routeLength="759.61" waitingTime="0.00" waitingCount="0" stopTime="0.00" timeLoss="23.04" rerouteNo="0" devices="tripinfo_veh271" vType="passenger" speedFactor="1.00" vaporized=""/>
    <tripinfo id="veh287" depart="121.00" departLane="43547296#1_1" departPos="2.35" departSpeed="0.00" departDelay="0.46" arrival="200.00" arrivalLane="1378376381_1" arrivalPos="160.13" arrivalSpeed="13.38" duration="79.00" routeLength="700.08" waitingTime="4.00" waitingCount="1" stopTime="0.00" timeLoss="23.10" rerouteNo="0" devices="tripinfo_veh287" vType="delivery" speedFactor="0.97" vaporized=""/>
    <tripinfo id="veh74" depart="32.00" departLane="-40299276#1_1" departPos="13.86" departSpeed="0.00" departDelay="0.92" arrival="204.00" arrivalLane="-530103975#1_1" arrivalPos="17.63" arrivalSpeed="12.56" duration="172.00" routeLength="1075.72" waitingTime="66.00" waitingCount="2" stopTime="0.00" timeLoss="94.67" rerouteNo="0" devices="tripinfo_veh74" vType="passenger" speedFactor="1.05" vaporized=""/>
    <tripinfo id="veh214" depart="90.00" departLane="-40345956#3_1" departPos="3.38" departSpeed="0.00" departDelay="0.12" arrival="206.00" arrivalLane="945793490#2_1" arrivalPos="11.86" arrivalSpeed="5.98" duration="116.00" routeLength="768.16" waitingTime="18.00" waitingCount="2" stopTime="0.00" timeLoss="42.71" rerouteNo="0" devices="tripinfo_veh214" vType="passenger" speedFactor="1.12" vaporized=""/>
    <tripinfo id="veh94" depart="40.00" departLane="383582508#0_0" departPos="3.38" departSpeed="0.00" departDelay="0.52" arrival="208.00" arrivalLane="945793491#1_1" arrivalPos="67.96" arrivalSpeed="6.14" duration="168.00" routeLength="963.28" waitingTime="4.00" waitingCount="1" stopTime="0.00" timeLoss="20.43" rerouteNo="0" devices="tripinfo_veh94" vType="bicycle" speedFactor="1.18" vaporized=""/>