<?xml version="1.0" encoding="UTF-8"?>

<!-- generated on 2025-06-15 22:23:36 by Eclipse SUMO sumo Version 1.22.0
<sumoConfiguration xmlns:xsi="http://www.w3.org/2001/XMLSchema-instance" xsi:noNamespaceSchemaLocation="http://sumo.dlr.de/xsd/sumoConfiguration.xsd">

    <input>
        <net-file value="E:/licenta/oras-mediu/2025-06-05-11-45-23\osm.net.xml"/>
        <route-files value="E:/licenta/oras-mediu/2025-06-05-11-45-23\full.rou.xml,E:/licenta/oras-mediu/2025-06-05-11-45-23\ ped.rou.xml,E:/licenta/oras-mediu/2025-06-05-11-45-23\ truck.rou.xml"/>
        <additional-files value="E:/licenta/oras-mediu/2025-06-05-11-45-23\osm.poly.xml,E:/licenta/oras-mediu/2025-06-05-11-45-23\ vtypes.xml"/>
    </input>

    <output>
        <summary-output value="E:/licenta/oras-mediu/2025-06-05-11-45-23\summary.xml"/>
        <tripinfo-output value="E:/licenta/oras-mediu/2025-06-05-11-45-23\tripinfo.xml"/>
    </output>

    <processing>
        <ignore-route-errors value="true"/>
        <tls.actuated.jam-threshold value="30"/>
    </processing>

    <routing>
        <device.rerouting.adaptation-steps value="18"/>
        <device.rerouting.adaptation-interval value="10"/>
    </routing>

    <report>
        <verbose value="true"/>
        <duration-log.statistics value="true"/>
        <no-step-log value="true"/>
    </report>

    <traci_server>
        <remote-port value="50167"/>
    </traci_server>

    <gui_only>
        <gui-settings-file value="E:/licenta/oras-mediu/2025-06-05-11-45-23\osm.view.xml"/>
    </gui_only>

</sumoConfiguration>
-->

<tripinfos xmlns:xsi="http://www.w3.org/2001/XMLSchema-instance" xsi:noNamespaceSchemaLocation="http://sumo.dlr.de/xsd/tripinfo_file.xsd">
    <tripinfo id="veh10" depart="8.00" departLane="383582508#1_0" departPos="17.10" departSpeed="0.00" departDelay="0.80" arrival="65.00" arrivalLane="-48778508#0_1" arrivalPos="11.34" arrivalSpeed="14.13" duration="57.00" routeLength="626.27" waitingTime="0.00" waitingCount="0" stopTime="0.00" timeLoss="8.89" rerouteNo="0" devices="tripinfo_veh10" vType="passenger" speedFactor="1.04" vaporized=""/>
    <tripinfo id="veh33" depart="24.00" departLane="-1136283361_0" departPos="40.42" departSpeed="0.00" departDelay="0.24" arrival="70.00" arrivalLane="48778494#0_1" arrivalPos="50.01" arrivalSpeed="12.84" duration="46.00" routeLength="341.53" waitingTime="2.00" waitingCount="1" stopTime="0.00" timeLoss="15.26" rerouteNo="0" devices="tripinfo_veh33" vType="emergency" speedFactor="1.00" vaporized=""/>
    <tripinfo id="veh27" depart="20.00" departLane="859728206_0" departPos="1.60" departSpeed="0.00" departDelay="0.56" arrival="77.00" arrivalLane="-E12.34_1" arrivalPos="55.77" arrivalSpeed="14.35" duration="57.00" routeLength="322.20" waitingTime="6.00" waitingCount="1" stopTime="0.00" timeLoss="20.34" rerouteNo="0" devices="tripinfo_veh27" vType="passenger" speedFactor="1.10" vaporized=""/>
    <tripinfo id="veh24" depart="18.00" departLane="40305706#0_1" departPos="29.94" departSpeed="0.00" departDelay="0.72" arrival="93.00" arrivalLane="-984521612#1_0" arrivalPos="29.21" arrivalSpeed="5.01" duration="75.00" routeLength="697.49" waitingTime="0.00" waitingCount="0" stopTime="0.00" timeLoss="16.39" rerouteNo="0" devices="tripinfo_veh24" vType="passenger" speedFactor="0.97" vaporized=""/>
    <tripinfo id="veh6" depart="5.00" departLane="354259933#1_1" departPos="21.58" departSpeed="0.00" departDelay="0.68" arrival="100.00" arrivalLane="43573547#5_1" arrivalPos="56.54" arrivalSpeed="12.18" duration="95.00" routeLength="1003.92" waitingTime="0.00" waitingCount="0" stopTime="0.00" timeLoss="13.96" rerouteNo="0" devices="tripinfo_veh6" vType="passenger" speedFactor="0.92" vaporized=""/>
    <tripinfo id="veh44" depart="32.00" departLane="-43573547#2_1" departPos="35.93" departSpeed="0.00" departDelay="0.32" arrival="103.00" arrivalLane="40236203#1_1" arrivalPos="32.69" arrivalSpeed="12.59" duration="71.00" routeLength="862.77" waitingTime="0.00" waitingCount="0" stopTime="0.00" timeLoss="6.44" rerouteNo="0" devices="tripinfo_veh44" vType="delivery" speedFactor="0.98" vaporized=""/>
    <tripinfo id="veh47" depart="34.00" departLane="859737784_1" departPos="35.52" departSpeed="0.00" departDelay="0.16" arrival="106.00" arrivalLane="-43546935#3_1" arrivalPos="13.61" arrivalSpeed="9.73" duration="72.00" routeLength="804.02" waitingTime="0.00" waitingCount="0" stopTime="0.00" timeLoss="11.19" rerouteNo="0" devices="tripinfo_veh47" vType="passenger" speedFactor="1.00" vaporized=""/>
    <tripinfo id="veh30" depart="22.00" departLane="-48778510#0_1" departPos="2.63" departSpeed="0.00" departDelay="0.40" arrival="114.00" arrivalLane="859734514#1_0" arrivalPos="56.51" arrivalSpeed="4.95" duration="92.00" routeLength="755.55" waitingTime="7.00" waitingCount="1" stopTime="0.00" timeLoss="25.49" rerouteNo="0" devices="tripinfo_veh30" vType="passenger" speedFactor="1.07" vaporized=""/>
    <tripinfo id="veh56" depart="41.00" departLane="492965073#7_1" departPos="7.36" departSpeed="0.00" departDelay="0.68" arrival="121.00" arrivalLane="1136301812#0_1" arrivalPos="36.85" arrivalSpeed="13.37" duration="80.00" routeLength="250.19" waitingTime="27.00" waitingCount="1" stopTime="0.00" timeLoss="44.68" rerouteNo="0" devices="tripinfo_veh56" vType="delivery" speedFactor="0.96" vaporized=""/>
    <tripinfo id="veh26" depart="19.00" departLane="48778498#2_1" departPos="8.43" departSpeed="0.00" departDelay="0.28" arrival="127.00" arrivalLane="-258551283#1_1" arrivalPos="55.98" arrivalSpeed="12.21" duration="108.00" routeLength="1144.22" waitingTime="0.00" waitingCount="0" stopTime="0.00" timeLoss="17.19" rerouteNo="0" devices="tripinfo_veh26" vType="passenger" speedFactor="0.94" vaporized=""/>
    <personinfo id="ped19" depart="95.00" type="DEFAULT_PEDTYPE" speedFactor="0.97" duration="33.00" waitingTime="0.00" timeLoss="3.75" traveltime="33.00">
        <walk depart="95.00" departPos="0.00" arrival="128.00" arrivalPos="17.60" duration="33.00" routeLength="39.31" timeLoss="3.75" maxSpeed="1.34"/>
    </personinfo>
    <tripinfo id="veh75" depart="54.00" departLane="43546789#0_1" departPos="7.98" departSpeed="0.00" departDelay="0.00" arrival="129.00" arrivalLane="-43573547#2_1" arrivalPos="42.21" arrivalSpeed="15.63" duration="75.00" routeLength="960.92" waitingTime="0.00" waitingCount="0" stopTime="0.00" timeLoss="12.31" rerouteNo="0" devices="tripinfo_veh75" vType="passenger" speedFactor="1.14" vaporized=""/>
    <tripinfo id="veh25" depart="18.00" departLane="-48797765#2_1" departPos="1.26" departSpeed="0.00" departDelay="0.00" arrival="141.00" arrivalLane="48778494#1_1" arrivalPos="15.92" arrivalSpeed="12.84" duration="123.00" routeLength="1348.73" waitingTime="0.00" waitingCount="0" stopTime="0.00" timeLoss="22.28" rerouteNo="0" devices="tripinfo_veh25" vType="motorcycle" speedFactor="1.02" vaporized=""/>
    <tripinfo id="veh7" depart="6.00" departLane="-859734513_0" departPos="53.59" departSpeed="0.00" departDelay="0.96" arrival="148.00" arrivalLane="-40329447_1" arrivalPos="12.91" arrivalSpeed="11.94" duration="142.00" routeLength="1608.23" waitingTime="0.00" waitingCount="0" stopTime="0.00" timeLoss="26.76" rerouteNo="0" devices="tripinfo_veh7" vType="passenger" speedFactor="1.12" vaporized=""/>
    <tripinfo id="veh66" depart="48.00" departLane="671642327_0" departPos="12.64" departSpeed="0.00" departDelay="0.48" arrival="153.00" arrivalLane="-945794108_1" arrivalPos="20.90" arrivalSpeed="7.89" duration="105.00" routeLength="863.01" waitingTime="0.00" waitingCount="0" stopTime="0.00" timeLoss="15.57" rerouteNo="0" devices="tripinfo_veh66" vType="passenger" speedFactor="0.98" vaporized=""/>
    <tripinfo id="veh51" depart="37.00" departLane="578560104#5_1" departPos="2.24" departSpeed="0.00" departDelay="0.28" arrival="155.00" arrivalLane="1250915724#0_1" arrivalPos="12.38" arrivalSpeed="5.15" duration="118.00" routeLength="1064.24" waitingTime="0.00" waitingCount="0" stopTime="0.00" timeLoss="20.00" rerouteNo="0" devices="tripinfo_veh51" vType="delivery" speedFactor="0.99" vaporized=""/>
    <tripinfo id="veh98" depart="71.00" departLane="-43544197#7_1" departPos="29.75" departSpeed="0.00" departDelay="0.44" arrival="161.00" arrivalLane="48778505#3_1" arrivalPos="13.21" arrivalSpeed="9.65" duration="90.00" routeLength="898.73" waitingTime="3.00" waitingCount="1" stopTime="0.00" timeLoss="24.53" rerouteNo="0" devices="tripinfo_veh98" vType="passenger" speedFactor="1.02" vaporized=""/>
    <tripinfo id="veh125" depart="90.00" departLane="859738688_0" departPos="201.43" departSpeed="0.00" departDelay="0.00" arrival="162.00" arrivalLane="48736614#1_1" arrivalPos="221.38" arrivalSpeed="12.90" duration="72.00" routeLength="704.09" waitingTime="1.00" waitingCount="1" stopTime="0.00" timeLoss="17.23" rerouteNo="0" devices="tripinfo_veh125" vType="motorcycle" speedFactor="1.01" vaporized=""/>
    <personinfo id="ped6" depart="30.00" type="DEFAULT_PEDTYPE" speedFactor="0.87" duration="133.00" waitingTime="0.00" timeLoss="13.05" traveltime="133.00">
        <walk depart="30.00" departPos="0.00" arrival="163.00" arrivalPos="84.62" duration="133.00" routeLength="145.37" timeLoss="13.05" maxSpeed="1.21"/>
    </personinfo>
    <tripinfo id="veh94" depart="68.00" departLane="48778473#1_1" departPos="29.20" departSpeed="0.00" departDelay="0.32" arrival="163.00" arrivalLane="48778494#1_1" arrivalPos="15.92" arrivalSpeed="13.04" duration="95.00" routeLength="1045.35" waitingTime="0.00" waitingCount="0" stopTime="0.00" timeLoss="16.38" rerouteNo="0" devices="tripinfo_veh94" vType="passenger" speedFactor="0.99" vaporized=""/>
    <tripinfo id="veh197" depart="142.00" departLane="470210923#3_1" departPos="1.39" departSpeed="0.00" departDelay="0.16" arrival="165.00" arrivalLane="-92198453#4_1" arrivalPos="62.81" arrivalSpeed="7.50" duration="23.00" routeLength="192.67" waitingTime="0.00" waitingCount="0" stopTime="0.00" timeLoss="8.49" rerouteNo="0" devices="tripinfo_veh197" vType="emergency" speedFactor="1.00" vaporized=""/>
    <tripinfo id="veh84" depart="61.00" departLane="-40345956#2_1" departPos="17.31" departSpeed="0.00" departDelay="0.52" arrival="167.00" arrivalLane="1136283379#0_1" arrivalPos="100.95" arrivalSpeed="7.98" duration="106.00" routeLength="1017.67" waitingTime="0.00" waitingCount="0" stopTime="0.00" timeLoss="19.94" rerouteNo="0" devices="tripinfo_veh84" vType="passenger" speedFactor="1.03" vaporized=""/>
    <tripinfo id="veh139" depart="101.00" departLane="48736656#3_1" departPos="19.66" departSpeed="0.00" departDelay="0.92" arrival="173.00" arrivalLane="176279225#2_2" arrivalPos="97.77" arrivalSpeed="13.24" duration="72.00" routeLength="709.43" waitingTime="0.00" waitingCount="0" stopTime="0.00" timeLoss="15.00" rerouteNo="0" devices="tripinfo_veh139" vType="passenger" speedFactor="0.96" vaporized=""/>
    <tripinfo id="veh62" depart="45.00" departLane="-43544179#3_1" departPos="50.27" departSpeed="0.00" departDelay="0.36" arrival="174.00" arrivalLane="671642290_1" arrivalPos="87.70" arrivalSpeed="12.09" duration="129.00" routeLength="1352.98" waitingTime="0.00" waitingCount="0" stopTime="0.00" timeLoss="16.42" rerouteNo="0" devices="tripinfo_veh62" vType="passenger" speedFactor="0.90" vaporized=""/>
    <tripinfo id="veh12" depart="9.00" departLane="-1250915720#3_1" departPos="2.07" departSpeed="0.00" departDelay="0.36" arrival="176.00" arrivalLane="40236164_1" arrivalPos="161.97" arrivalSpeed="12.79" duration="167.00" routeLength="1603.26" waitingTime="1.00" waitingCount="1" stopTime="0.00" timeLoss="29.86" rerouteNo="0" devices="tripinfo_veh12" vType="emergency" speedFactor="1.00" vaporized=""/>
    <tripinfo id="veh134" depart="97.00" departLane="-48736666#2_1" departPos="51.42" departSpeed="0.00" departDelay="0.52" arrival="176.00" arrivalLane="48736657#1_1" arrivalPos="19.18" arrivalSpeed="11.56" duration="79.00" routeLength="737.84" waitingTime="0.00" waitingCount="0" stopTime="0.00" timeLoss="28.55" rerouteNo="0" devices="tripinfo_veh134" vType="passenger" speedFactor="1.13" vaporized=""/>
    <tripinfo id="veh16" depart="12.00" departLane="-143207979#4_1" departPos="15.08" departSpeed="0.00" departDelay="0.48" arrival="177.00" arrivalLane="40306162#1_1" arrivalPos="38.73" arrivalSpeed="13.66" duration="165.00" routeLength="1859.60" waitingTime="0.00" waitingCount="0" stopTime="0.00" timeLoss="27.05" rerouteNo="0" devices="tripinfo_veh16" vType="passenger" speedFactor="1.01" vaporized=""/>
    <tripinfo id="veh40" depart="29.00" departLane="-1136117604_1" departPos="18.24" departSpeed="0.00" departDelay="0.20" arrival="183.00" arrivalLane="43546688#0_1" arrivalPos="19.83" arrivalSpeed="12.23" duration="154.00" routeLength="1677.43" waitingTime="0.00" waitingCount="0" stopTime="0.00" timeLoss="28.39" rerouteNo="0" devices="tripinfo_veh40" vType="motorcycle" speedFactor="1.00" vaporized=""/>
    <tripinfo id="veh49" depart="36.00" departLane="-40330575#3_1" departPos="4.40" departSpeed="0.00" departDelay="0.72" arrival="185.00" arrivalLane="-E12_1" arrivalPos="17.16" arrivalSpeed="12.13" duration="149.00" routeLength="1845.73" waitingTime="4.00" waitingCount="1" stopTime="0.00" timeLoss="28.34" rerouteNo="0" devices="tripinfo_veh49" vType="passenger" speedFactor="1.12" vaporized=""/>
    <tripinfo id="veh100" depart="72.00" departLane="-43544179#3_1" departPos="43.63" departSpeed="0.00" departDelay="0.00" arrival="186.00" arrivalLane="43544197#2_1" arrivalPos="42.39" arrivalSpeed="14.05" duration="114.00" routeLength="1366.96" waitingTime="0.00" waitingCount="0" stopTime="0.00" timeLoss="15.36" rerouteNo="0" devices="tripinfo_veh100" vType="passenger" speedFactor="1.03" vaporized=""/>
    <tripinfo id="veh178" depart="129.00" departLane="-43544184#3_1" departPos="30.12" departSpeed="0.00" departDelay="0.84" arrival="188.00" arrivalLane="-258551283#1_1" arrivalPos="55.98" arrivalSpeed="12.63" duration="59.00" routeLength="611.73" waitingTime="0.00" waitingCount="0" stopTime="0.00" timeLoss="11.31" rerouteNo="0" devices="tripinfo_veh178" vType="passenger" speedFactor="0.96" vaporized=""/>
    <tripinfo id="veh36" depart="26.00" departLane="48788485#9_1" departPos="166.70" departSpeed="0.00" departDelay="0.08" arrival="189.00" arrivalLane="40265775#1_1" arrivalPos="76.38" arrivalSpeed="11.56" duration="163.00" routeLength="1599.02" waitingTime="0.00" waitingCount="0" stopTime="0.00" timeLoss="26.61" rerouteNo="0" devices="tripinfo_veh36" vType="passenger" speedFactor="0.88" vaporized=""/>
    <tripinfo id="veh111" depart="85.00" departLane="-40236144#1_1" departPos="20.24" departSpeed="0.00" departDelay="5.08" arrival="189.00" arrivalLane="671642324_1" arrivalPos="52.30" arrivalSpeed="13.08" duration="104.00" routeLength="1143.35" waitingTime="0.00" waitingCount="0" stopTime="0.00" timeLoss="19.85" rerouteNo="0" devices="tripinfo_veh111" vType="passenger" speedFactor="1.02" vaporized=""/>
    <tripinfo id="veh77" depart="56.00" departLane="-43546105#3_1" departPos="25.96" departSpeed="0.00" departDelay="0.56" arrival="191.00" arrivalLane="-33909936#2_1" arrivalPos="60.97" arrivalSpeed="13.83" duration="135.00" routeLength="1355.23" waitingTime="10.00" waitingCount="1" stopTime="0.00" timeLoss="34.13" rerouteNo="0" devices="tripinfo_veh77" vType="emergency" speedFactor="1.00" vaporized=""/>
    <tripinfo id="veh97" depart="70.00" departLane="383582509_0" departPos="81.41" departSpeed="0.00" departDelay="0.16" arrival="192.00" arrivalLane="48778473#0_1" arrivalPos="21.31" arrivalSpeed="10.33" duration="122.00" routeLength="1096.20" waitingTime="22.00" waitingCount="1" stopTime="0.00" timeLoss="41.60" rerouteNo="0" devices="tripinfo_veh97" vType="passenger" speedFactor="1.03" vaporized=""/>
    <tripinfo id="veh1" depart="1.00" departLane="1136119743#0_1" departPos="1.11" departSpeed="0.00" departDelay="0.28" arrival="194.00" arrivalLane="48778480#7_1" arrivalPos="258.72" arrivalSpeed="14.60" duration="193.00" routeLength="1544.50" waitingTime="50.00" waitingCount="2" stopTime="0.00" timeLoss="78.81" rerouteNo="0" devices="tripinfo_veh1" vType="passenger" speedFactor="1.08" vaporized=""/>
    <personinfo id="ped0" depart="0.00" type="DEFAULT_PEDTYPE" speedFactor="1.03" duration="195.00" waitingTime="0.00" timeLoss="19.90" traveltime="195.00">
        <walk depart="0.00" departPos="0.00" arrival="195.00" arrivalPos="5.49" duration="195.00" routeLength="250.57" timeLoss="19.90" maxSpeed="1.43"/>
    </personinfo>
    <tripinfo id="veh88" depart="64.00" departLane="43573573#3_1" departPos="10.52" departSpeed="0.00" departDelay="0.64" arrival="195.00" arrivalLane="43546039#1_1" arrivalPos="97.78" arrivalSpeed="11.39" duration="131.00" routeLength="1250.00" waitingTime="0.00" waitingCount="0" stopTime="0.00" timeLoss="22.52" rerouteNo="0" devices="tripinfo_veh88" vType="passenger" speedFactor="0.87" vaporized=""/>
    <tripinfo id="veh120" depart="87.00" departLane="-492965073#7_2" departPos="1.84" departSpeed="0.00" departDelay="0.60" arrival="196.00" arrivalLane="-1135855912_1" arrivalPos="95.20" arrivalSpeed="13.64" duration="109.00" routeLength="712.55" waitingTime="16.00" waitingCount="2" stopTime="0.00" timeLoss="38.63" rerouteNo="0" devices="tripinfo_veh120" vType="motorcycle" speedFactor="1.04" vaporized=""/>
    <tripinfo id="veh119" depart="86.00" departLane="-1136289987_1" departPos="59.94" departSpeed="0.00" departDelay="0.32" arrival="197.00" arrivalLane="48788485#4_1" arrivalPos="201.27" arrivalSpeed="12.29" duration="111.00" routeLength="1119.08" waitingTime="0.00" waitingCount="0" stopTime="0.00" timeLoss="20.05" rerouteNo="0" devices="tripinfo_veh119" vType="passenger" speedFactor="0.97" vaporized=""/>
    <tripinfo id="veh92" depart="67.00" departLane="48778499#0_1" departPos="1.06" departSpeed="0.00" departDelay="0.76" arrival="198.00" arrivalLane="859732802#0_0" arrivalPos="5.59" arrivalSpeed="6.26" duration="131.00" routeLength="780.72" waitingTime="0.00" waitingCount="0" stopTime="0.00" timeLoss="11.57" rerouteNo="0" devices="tripinfo_veh92" vType="bicycle" speedFactor="1.18" vaporized=""/>
    <tripinfo id="veh141" depart="102.00" departLane="-40299241#2_1" departPos="93.22" departSpeed="0.00" departDelay="0.48" arrival="200.00" arrivalLane="-48797767#2_1" arrivalPos="15.37" arrivalSpeed="6.04" duration="98.00" routeLength="537.09" waitingTime="0.00" waitingCount="0" stopTime="0.00" timeLoss="8.36" rerouteNo="0" devices="tripinfo_veh141" vType="bicycle" speedFactor="1.09" vaporized=""/>
    <tripinfo id="veh191" depart="138.00" departLane="40305706#2_1" departPos="24.55" departSpeed="0.00" departDelay="0.48" arrival="200.00" arrivalLane="-1136301818_1" arrivalPos="34.45" arrivalSpeed="13.21" duration="62.00" routeLength="629.73" waitingTime="0.00" waitingCount="0" stopTime="0.00" timeLoss="13.30" rerouteNo="0" devices="tripinfo_veh191" vType="delivery" speedFactor="0.99" vaporized=""/>
    <tripinfo id="veh57" depart="42.00" departLane="-43546688#2_1" departPos="33.18" departSpeed="0.00" departDelay="0.96" arrival="202.00" arrivalLane="-43544138#0_1" arrivalPos="44.10" arrivalSpeed="14.21" duration="160.00" routeLength="1882.02" waitingTime="1.00" waitingCount="1" stopTime="0.00" timeLoss="28.21" rerouteNo="0" devices="tripinfo_veh57" vType="passenger" speedFactor="1.06" vaporized=""/>
    <tripinfo id="veh35" depart="26.00" departLane="-859729932_0" departPos="10.39" departSpeed="0.00" departDelay="0.80" arrival="207.00" arrivalLane="984521611#1_0" arrivalPos="22.34" arrivalSpeed="4.62" duration="181.00" routeLength="990.86" waitingTime="56.00" waitingCount="2" stopTime="0.00" timeLoss="77.92" rerouteNo="0" devices="tripinfo_veh35" vType="passenger" speedFactor="0.95" vaporized=""/>
    <tripinfo id="veh64" depart="47.00" departLane="48778475#0_1" departPos="21.54" departSpeed="0.00" departDelay="0.92" arrival="208.00" arrivalLane="647610982#0_1" arrivalPos="197.95" arrivalSpeed="13.23" duration="161.00" routeLength="1361.49" waitingTime="34.00" waitingCount="1" stopTime="0.00" timeLoss="61.09" rerouteNo="0" devices="tripinfo_veh64" vType="passenger" speedFactor="1.02" vaporized=""/>
    <tripinfo id="veh89" depart="65.00" departLane="-43544184#4_1" departPos="12.00" departSpeed="0.00" departDelay="0.92" arrival="208.00" arrivalLane="-1136283379#0_1" arrivalPos="91.86" arrivalSpeed="8.32" duration="143.00" routeLength="1429.88" waitingTime="0.00" waitingCount="0" stopTime="0.00" timeLoss="32.04" rerouteNo="0" devices="tripinfo_veh89" vType="delivery" speedFactor="1.01" vaporized=""/>
    <tripinfo id="veh59" depart="43.00" departLane="-48736655_1" departPos="5.12" departSpeed="0.00" departDelay="0.52" arrival="213.00" arrivalLane="43547579#4_1" arrivalPos="247.27" arrivalSpeed="13.18" duration="170.00" routeLength="1761.50" waitingTime="11.00" waitingCount="1" stopTime="0.00" timeLoss="44.10" rerouteNo="0" devices="tripinfo_veh59" vType="passenger" speedFactor="1.03" vaporized=""/>
    <tripinfo id="veh76" depart="55.00" departLane="-1135772297_0" departPos="0.82" departSpeed="0.00" departDelay="0.28" arrival="215.00" arrivalLane="48736612#3_1" arrivalPos="54.88" arrivalSpeed="14.00" duration="160.00" routeLength="1765.57" waitingTime="2.00" waitingCount="1" stopTime="0.00" timeLoss="29.99" rerouteNo="0" devices="tripinfo_veh76" vType="passenger" speedFactor="1.10" vaporized=""/>
    <tripinfo id="veh189" depart="137.00" departLane="-383582854#0_0" departPos="3.70" departSpeed="0.00" departDelay="0.92" arrival="216.00" arrivalLane="-40314583#3_1" arrivalPos="34.64" arrivalSpeed="12.85" duration="79.00" routeLength="597.07" waitingTime="13.00" waitingCount="1" stopTime="0.00" timeLoss="27.39" rerouteNo="0" devices="tripinfo_veh189" vType="delivery" speedFactor="0.93" vaporized=""/>
    <tripinfo id="veh13" depart="10.00" departLane="-647998060#1_1" departPos="31.15" departSpeed="0.00" departDelay="0.64" arrival="218.00" arrivalLane="40315648#0_2" arrivalPos="94.16" arrivalSpeed="13.59" duration="208.00" routeLength="2257.75" waitingTime="5.00" waitingCount="2" stopTime="0.00" timeLoss="43.60" rerouteNo="0" devices="tripinfo_veh13" vType="passenger" speedFactor="1.02" vaporized=""/>
    <tripinfo id="veh22" depart="16.00" departLane="-994066570_0" departPos="85.84" departSpeed="0.00" departDelay="0.16" arrival="218.00" arrivalLane="48736620#1_1" arrivalPos="60.01" arrivalSpeed="15.14" duration="202.00" routeLength="2313.62" waitingTime="2.00" waitingCount="1" stopTime="0.00" timeLoss="42.30" rerouteNo="0" devices="tripinfo_veh22" vType="passenger" speedFactor="1.12" vaporized=""/>
    <tripinfo id="veh176" depart="127.00" departLane="-1364605473_0" departPos="23.93" departSpeed="0.00" departDelay="0.28" arrival="218.00" arrivalLane="48736657#0_1" arrivalPos="53.76" arrivalSpeed="13.00" duration="91.00" routeLength="1081.04" waitingTime="0.00" waitingCount="0" stopTime="0.00" timeLoss="15.56" rerouteNo="0" devices="tripinfo_veh176" vType="motorcycle" speedFactor="1.10" vaporized=""/>
    <tripinfo id="veh93" depart="67.00" departLane="43546570#0_1" departPos="32.23" departSpeed="0.00" departDelay="0.04" arrival="223.00" arrivalLane="-1136301819_1" arrivalPos="13.82" arrivalSpeed="9.73" duration="156.00" routeLength="1284.68" waitingTime="26.00" waitingCount="4" stopTime="0.00" timeLoss="70.02" rerouteNo="0" devices="tripinfo_veh93" vType="passenger" speedFactor="1.13" vaporized=""/>
    <tripinfo id="veh235" depart="170.00" departLane="353939585#2_1" departPos="14.94" departSpeed="0.00" departDelay="0.80" arrival="226.00" arrivalLane="-223883703_0" arrivalPos="83.93" arrivalSpeed="4.06" duration="56.00" routeLength="365.20" waitingTime="1.00" waitingCount="1" stopTime="0.00" timeLoss="16.11" rerouteNo="0" devices="tripinfo_veh235" vType="motorcycle" speedFactor="0.94" vaporized=""/>
    <tripinfo id="veh126" depart="91.00" departLane="-48778524#1_1" departPos="3.51" departSpeed="0.00" departDelay="0.28" arrival="228.00" arrivalLane="859735387#1_0" arrivalPos="30.39" arrivalSpeed="4.78" duration="137.00" routeLength="820.74" waitingTime="36.00" waitingCount="1" stopTime="0.00" timeLoss="54.22" rerouteNo="0" devices="tripinfo_veh126" vType="passenger" speedFactor="0.91" vaporized=""/>
    <tripinfo id="veh2" depart="2.00" departLane="-222605084#7_1" departPos="20.45" departSpeed="0.00" departDelay="0.56" arrival="229.00" arrivalLane="143207979#4_1" arrivalPos="45.53" arrivalSpeed="12.94" duration="227.00" routeLength="2387.40" waitingTime="0.00" waitingCount="0" stopTime="0.00" timeLoss="38.30" rerouteNo="0" devices="tripinfo_veh2" vType="passenger" speedFactor="1.08" vaporized=""/>
    <tripinfo id="veh132" depart="96.00" departLane="48736625_1" departPos="38.48" departSpeed="0.00" departDelay="0.96" arrival="229.00" arrivalLane="48798094#2_0" arrivalPos="169.95" arrivalSpeed="13.07" duration="133.00" routeLength="1574.30" waitingTime="0.00" waitingCount="0" stopTime="0.00" timeLoss="12.71" rerouteNo="0" devices="tripinfo_veh132" vType="passenger" speedFactor="0.97" vaporized=""/>
    <tripinfo id="veh250" depart="180.00" departLane="-43544197#5_1" departPos="28.16" departSpeed="0.00" departDelay="0.00" arrival="229.00" arrivalLane="-43547017#0_1" arrivalPos="90.36" arrivalSpeed="13.66" duration="49.00" routeLength="560.94" waitingTime="0.00" waitingCount="0" stopTime="0.00" timeLoss="8.82" rerouteNo="0" devices="tripinfo_veh250" vType="passenger" speedFactor="1.06" vaporized=""/>
    <tripinfo id="veh39" depart="29.00" departLane="383582496_0" departPos="17.22" departSpeed="0.00" departDelay="0.92" arrival="231.00" arrivalLane="-43544179#7_1" arrivalPos="45.60" arrivalSpeed="14.51" duration="202.00" routeLength="1828.52" waitingTime="0.00" waitingCount="0" stopTime="0.00" timeLoss="31.63" rerouteNo="0" devices="tripinfo_veh39" vType="passenger" speedFactor="1.05" vaporized=""/>
    <tripinfo id="veh115" depart="83.00" departLane="-647226815#1_1" departPos="36.38" departSpeed="0.00" departDelay="0.20" arrival="231.00" arrivalLane="40304754#5_1" arrivalPos="153.80" arrivalSpeed="14.21" duration="148.00" routeLength="1727.13" waitingTime="0.00" waitingCount="0" stopTime="0.00" timeLoss="28.94" rerouteNo="0" devices="tripinfo_veh115" vType="delivery" speedFactor="1.06" vaporized=""/>
    <tripinfo id="veh38" depart="28.00" departLane="48736641_1" departPos="7.27" departSpeed="0.00" departDelay="0.64" arrival="233.00" arrivalLane="-143207979#0_1" arrivalPos="24.79" arrivalSpeed="14.05" duration="205.00" routeLength="2604.53" waitingTime="0.00" waitingCount="0" stopTime="0.00" timeLoss="39.64" rerouteNo="0" devices="tripinfo_veh38" vType="passenger" speedFactor="1.17" vaporized=""/>
    <tripinfo id="veh29" depart="21.00" departLane="-48798094#1_0" departPos="201.60" departSpeed="0.00" departDelay="0.12" arrival="235.00" arrivalLane="43547579#4_1" arrivalPos="247.27" arrivalSpeed="13.49" duration="214.00" routeLength="2598.44" waitingTime="1.00" waitingCount="1" stopTime="0.00" timeLoss="30.90" rerouteNo="0" devices="tripinfo_veh29" vType="passenger" speedFactor="1.03" vaporized=""/>
    <tripinfo id="veh34" depart="25.00" departLane="353939570#2_2" departPos="2.26" departSpeed="0.00" departDelay="0.52" arrival="236.00" arrivalLane="48778453_1" arrivalPos="29.18" arrivalSpeed="12.62" duration="211.00" routeLength="1907.37" waitingTime="28.00" waitingCount="2" stopTime="0.00" timeLoss="78.59" rerouteNo="0" devices="tripinfo_veh34" vType="passenger" speedFactor="1.09" vaporized=""/>
    <tripinfo id="veh149" depart="108.00" departLane="43546064#1_1" departPos="50.05" departSpeed="0.00" departDelay="0.72" arrival="236.00" arrivalLane="-647998063#1_1" arrivalPos="65.11" arrivalSpeed="11.97" duration="128.00" routeLength="1375.57" waitingTime="0.00" waitingCount="0" stopTime="0.00" timeLoss="13.79" rerouteNo="0" devices="tripinfo_veh149" vType="passenger" speedFactor="0.89" vaporized=""/>
    <tripinfo id="veh199" depart="144.00" departLane="353939570#2_2" departPos="2.33" departSpeed="0.00" departDelay="0.72" arrival="238.00" arrivalLane="-222609004#1_1" arrivalPos="58.62" arrivalSpeed="13.31" duration="94.00" routeLength="996.46" waitingTime="4.00" waitingCount="1" stopTime="0.00" timeLoss="20.76" rerouteNo="0" devices="tripinfo_veh199" vType="delivery" speedFactor="1.01" vaporized=""/>
    <tripinfo id="veh202" depart="146.00" departLane="-1136289990_1" departPos="13.88" departSpeed="0.00" departDelay="0.56" arrival="238.00" arrivalLane="43573547#7_1" arrivalPos="83.95" arrivalSpeed="14.16" duration="92.00" routeLength="1096.51" waitingTime="0.00" waitingCount="0" stopTime="0.00" timeLoss="13.97" rerouteNo="0" devices="tripinfo_veh202" vType="passenger" speedFactor="1.07" vaporized=""/>
    <tripinfo id="veh19" depart="14.00" departLane="-48778479_1" departPos="104.50" departSpeed="0.00" departDelay="0.32" arrival="240.00" arrivalLane="-353939570#10_2" arrivalPos="344.65" arrivalSpeed="15.09" duration="226.00" routeLength="2964.24" waitingTime="1.00" waitingCount="1" stopTime="0.00" timeLoss="36.46" rerouteNo="0" devices="tripinfo_veh19" vType="passenger" speedFactor="1.13" vaporized=""/>
    <tripinfo id="veh128" depart="93.00" departLane="383582514_1" departPos="179.53" departSpeed="0.00" departDelay="0.84" arrival="242.00" arrivalLane="-40236144#3_1" arrivalPos="83.77" arrivalSpeed="11.97" duration="149.00" routeLength="1499.94" waitingTime="0.00" waitingCount="0" stopTime="0.00" timeLoss="19.47" rerouteNo="0" devices="tripinfo_veh128" vType="passenger" speedFactor="0.88" vaporized=""/>
    <tripinfo id="veh194" depart="140.00" departLane="43573478_1" departPos="151.85" departSpeed="0.00" departDelay="0.32" arrival="245.00" arrivalLane="48736646#0_1" arrivalPos="88.26" arrivalSpeed="13.51" duration="105.00" routeLength="951.69" waitingTime="16.00" waitingCount="1" stopTime="0.00" timeLoss="35.14" rerouteNo="0" devices="tripinfo_veh194" vType="passenger" speedFactor="1.04" vaporized=""/>