<?xml version="1.0" encoding="UTF-8"?>

<!-- generated on 2025-06-15 21:33:13 by Eclipse SUMO sumo Version 1.22.0
<sumoConfiguration xmlns:xsi="http://www.w3.org/2001/XMLSchema-instance" xsi:noNamespaceSchemaLocation="http://sumo.dlr.de/xsd/sumoConfiguration.xsd">

    <input>
        <net-file value="E:/licenta/oras-mediu/2025-06-05-11-45-23\osm.net.xml"/>
        <route-files value="E:/licenta/oras-mediu/2025-06-05-11-45-23\full.rou.xml,E:/licenta/oras-mediu/2025-06-05-11-45-23\ ped.rou.xml,E:/licenta/oras-mediu/2025-06-05-11-45-23\ truck.rou.xml"/>
        <additional-files value="E:/licenta/oras-mediu/2025-06-05-11-45-23\osm.poly.xml,E:/licenta/oras-mediu/2025-06-05-11-45-23\ vtypes.xml"/>
    </input>

    <output>
        <summary-output value="E:/licenta/oras-mediu/2025-06-05-11-45-23\summary.xml"/>
        <tripinfo-output value="E:/licenta/oras-mediu/2025-06-05-11-45-23\tripinfo.xml"/>
    </output>

    <processing>
        <ignore-route-errors value="true"/>
        <tls.actuated.jam-threshold value="30"/>
    </processing>

    <routing>
        <device.rerouting.adaptation-steps value="18"/>
        <device.rerouting.adaptation-interval value="10"/>
    </routing>

    <report>
        <verbose value="true"/>
        <duration-log.statistics value="true"/>
        <no-step-log value="true"/>
    </report>

    <traci_server>
        <remote-port value="64090"/>
    </traci_server>

    <gui_only>
        <gui-settings-file value="E:/licenta/oras-mediu/2025-06-05-11-45-23\osm.view.xml"/>
    </gui_only>

</sumoConfiguration>
-->

<tripinfos xmlns:xsi="http://www.w3.org/2001/XMLSchema-instance" xsi:noNamespaceSchemaLocation="http://sumo.dlr.de/xsd/tripinfo_file.xsd">
    <tripinfo id="veh18" depart="9.00" departLane="-40330592_1" departPos="3.76" departSpeed="0.00" departDelay="0.36" arrival="83.00" arrivalLane="-1250915720#3_1" arrivalPos="2.51" arrivalSpeed="5.15" duration="74.00" routeLength="553.30" waitingTime="0.00" waitingCount="0" stopTime="0.00" timeLoss="16.96" rerouteNo="0" devices="tripinfo_veh18" vType="passenger" speedFactor="1.01" vaporized=""/>
    <tripinfo id="veh13" depart="7.00" departLane="48778456#0_1" departPos="13.95" departSpeed="0.00" departDelay="0.76" arrival="86.00" arrivalLane="945793485#0_1" arrivalPos="25.00" arrivalSpeed="12.40" duration="79.00" routeLength="716.22" waitingTime="0.00" waitingCount="0" stopTime="0.00" timeLoss="21.91" rerouteNo="0" devices="tripinfo_veh13" vType="emergency" speedFactor="1.00" vaporized=""/>
    <tripinfo id="veh32" depart="16.00" departLane="174818022#0_0" departPos="16.66" departSpeed="0.00" departDelay="0.64" arrival="92.00" arrivalLane="48736665_1" arrivalPos="14.66" arrivalSpeed="9.94" duration="76.00" routeLength="488.38" waitingTime="0.00" waitingCount="0" stopTime="0.00" timeLoss="12.46" rerouteNo="0" devices="tripinfo_veh32" vType="passenger" speedFactor="1.03" vaporized=""/>
    <tripinfo id="veh25" depart="12.00" departLane="-43544197#6_1" departPos="9.85" departSpeed="0.00" departDelay="0.00" arrival="93.00" arrivalLane="48778525#2_1" arrivalPos="124.59" arrivalSpeed="13.11" duration="81.00" routeLength="877.65" waitingTime="0.00" waitingCount="0" stopTime="0.00" timeLoss="15.35" rerouteNo="0" devices="tripinfo_veh25" vType="passenger" speedFactor="0.99" vaporized=""/>
    <personinfo id="ped9" depart="45.00" type="DEFAULT_PEDTYPE" speedFactor="1.05" duration="52.00" waitingTime="0.00" timeLoss="4.67" traveltime="52.00">
        <walk depart="45.00" departPos="0.00" arrival="97.00" arrivalPos="31.80" duration="52.00" routeLength="69.20" timeLoss="4.67" maxSpeed="1.46"/>
    </personinfo>
    <tripinfo id="veh106" depart="51.00" departLane="48736637_1" departPos="2.56" departSpeed="0.00" departDelay="0.12" arrival="99.00" arrivalLane="-48736638#1_1" arrivalPos="84.57" arrivalSpeed="13.26" duration="48.00" routeLength="345.86" waitingTime="0.00" waitingCount="0" stopTime="0.00" timeLoss="11.71" rerouteNo="0" devices="tripinfo_veh106" vType="passenger" speedFactor="1.04" vaporized=""/>
    <tripinfo id="veh41" depart="20.00" departLane="996984133_1" departPos="27.35" departSpeed="0.00" departDelay="0.32" arrival="104.00" arrivalLane="1158942155_1" arrivalPos="54.59" arrivalSpeed="14.05" duration="84.00" routeLength="305.72" waitingTime="47.00" waitingCount="1" stopTime="0.00" timeLoss="59.27" rerouteNo="0" devices="tripinfo_veh41" vType="passenger" speedFactor="1.05" vaporized=""/>
    <tripinfo id="veh166" depart="80.00" departLane="1232511776#0_1" departPos="61.40" departSpeed="0.00" departDelay="0.32" arrival="109.00" arrivalLane="48778515_1" arrivalPos="19.64" arrivalSpeed="5.81" duration="29.00" routeLength="269.99" waitingTime="0.00" waitingCount="0" stopTime="0.00" timeLoss="6.71" rerouteNo="0" devices="tripinfo_veh166" vType="motorcycle" speedFactor="1.00" vaporized=""/>
    <tripinfo id="veh75" depart="36.00" departLane="-92198451#0.58_2" departPos="1.98" departSpeed="0.00" departDelay="0.00" arrival="113.00" arrivalLane="250295384_1" arrivalPos="124.18" arrivalSpeed="11.39" duration="77.00" routeLength="825.52" waitingTime="0.00" waitingCount="0" stopTime="0.00" timeLoss="9.71" rerouteNo="0" devices="tripinfo_veh75" vType="passenger" speedFactor="0.91" vaporized=""/>
    <tripinfo id="veh33" depart="16.00" departLane="-1250915720#2_1" departPos="2.69" departSpeed="0.00" departDelay="0.16" arrival="118.00" arrivalLane="984508802_0" arrivalPos="57.38" arrivalSpeed="5.24" duration="102.00" routeLength="747.85" waitingTime="0.00" waitingCount="0" stopTime="0.00" timeLoss="22.14" rerouteNo="0" devices="tripinfo_veh33" vType="passenger" speedFactor="1.07" vaporized=""/>
    <tripinfo id="veh12" depart="6.00" departLane="40236220#2_1" departPos="7.99" departSpeed="0.00" departDelay="0.24" arrival="119.00" arrivalLane="-251916699#1_1" arrivalPos="101.92" arrivalSpeed="12.71" duration="113.00" routeLength="1233.70" waitingTime="0.00" waitingCount="0" stopTime="0.00" timeLoss="18.86" rerouteNo="0" devices="tripinfo_veh12" vType="delivery" speedFactor="0.97" vaporized=""/>
    <tripinfo id="veh124" depart="60.00" departLane="48778457#0_1" departPos="0.04" departSpeed="0.00" departDelay="0.48" arrival="136.00" arrivalLane="48778449#1_1" arrivalPos="70.68" arrivalSpeed="15.11" duration="76.00" routeLength="699.02" waitingTime="0.00" waitingCount="0" stopTime="0.00" timeLoss="27.47" rerouteNo="0" devices="tripinfo_veh124" vType="passenger" speedFactor="1.18" vaporized=""/>
    <tripinfo id="veh177" depart="85.00" departLane="996984133_1" departPos="28.70" departSpeed="0.00" departDelay="0.04" arrival="141.00" arrivalLane="-33909936#2_1" arrivalPos="60.97" arrivalSpeed="13.67" duration="56.00" routeLength="533.77" waitingTime="0.00" waitingCount="0" stopTime="0.00" timeLoss="12.17" rerouteNo="0" devices="tripinfo_veh177" vType="motorcycle" speedFactor="1.00" vaporized=""/>
    <tripinfo id="veh21" depart="11.00" departLane="40236203#0_1" departPos="10.45" departSpeed="0.00" departDelay="0.92" arrival="144.00" arrivalLane="-1136119743#0_1" arrivalPos="24.46" arrivalSpeed="8.74" duration="133.00" routeLength="1303.96" waitingTime="2.00" waitingCount="1" stopTime="0.00" timeLoss="36.63" rerouteNo="0" devices="tripinfo_veh21" vType="passenger" speedFactor="1.13" vaporized=""/>
    <tripinfo id="veh111" depart="54.00" departLane="40299241#0_1" departPos="56.43" departSpeed="0.00" departDelay="0.72" arrival="144.00" arrivalLane="48736650#2_1" arrivalPos="16.21" arrivalSpeed="11.91" duration="90.00" routeLength="713.50" waitingTime="0.00" waitingCount="0" stopTime="0.00" timeLoss="20.42" rerouteNo="0" devices="tripinfo_veh111" vType="passenger" speedFactor="1.06" vaporized=""/>
    <tripinfo id="veh54" depart="26.00" departLane="-40299276#0_1" departPos="3.58" departSpeed="0.00" departDelay="0.08" arrival="152.00" arrivalLane="48736631_1" arrivalPos="82.80" arrivalSpeed="6.99" duration="126.00" routeLength="972.82" waitingTime="12.00" waitingCount="1" stopTime="0.00" timeLoss="39.04" rerouteNo="0" devices="tripinfo_veh54" vType="passenger" speedFactor="0.91" vaporized=""/>
    <tripinfo id="veh211" depart="102.00" departLane="1136284448_1" departPos="11.91" departSpeed="0.00" departDelay="0.72" arrival="153.00" arrivalLane="48778505#2_1" arrivalPos="58.26" arrivalSpeed="12.24" duration="51.00" routeLength="508.83" waitingTime="0.00" waitingCount="0" stopTime="0.00" timeLoss="9.43" rerouteNo="0" devices="tripinfo_veh211" vType="passenger" speedFactor="0.96" vaporized=""/>
    <tripinfo id="veh101" depart="49.00" departLane="354250407#1_1" departPos="53.36" departSpeed="0.00" departDelay="0.52" arrival="158.00" arrivalLane="222605087#2_1" arrivalPos="14.85" arrivalSpeed="4.69" duration="109.00" routeLength="1063.61" waitingTime="5.00" waitingCount="1" stopTime="0.00" timeLoss="19.92" rerouteNo="0" devices="tripinfo_veh101" vType="passenger" speedFactor="1.00" vaporized=""/>
    <tripinfo id="veh248" depart="120.00" departLane="222605084#9_1" departPos="2.17" departSpeed="0.00" departDelay="0.96" arrival="162.00" arrivalLane="-222605084#9_1" arrivalPos="2.21" arrivalSpeed="5.79" duration="42.00" routeLength="210.18" waitingTime="0.00" waitingCount="0" stopTime="0.00" timeLoss="5.17" rerouteNo="0" devices="tripinfo_veh248" vType="passenger" speedFactor="1.05" vaporized=""/>
    <tripinfo id="veh27" depart="13.00" departLane="-48736648#0_1" departPos="0.14" departSpeed="0.00" departDelay="0.04" arrival="169.00" arrivalLane="992542691_0" arrivalPos="24.23" arrivalSpeed="5.38" duration="156.00" routeLength="1631.35" waitingTime="0.00" waitingCount="0" stopTime="0.00" timeLoss="25.22" rerouteNo="0" devices="tripinfo_veh27" vType="passenger" speedFactor="0.97" vaporized=""/>
    <tripinfo id="veh44" depart="22.00" departLane="264868325_1" departPos="95.93" departSpeed="0.00" departDelay="0.88" arrival="169.00" arrivalLane="-40236144#2_1" arrivalPos="51.63" arrivalSpeed="5.89" duration="147.00" routeLength="836.26" waitingTime="0.00" waitingCount="0" stopTime="0.00" timeLoss="9.85" rerouteNo="0" devices="tripinfo_veh44" vType="bicycle" speedFactor="1.10" vaporized=""/>
    <tripinfo id="veh61" depart="30.00" departLane="-48797765#2_1" departPos="7.42" departSpeed="0.00" departDelay="0.72" arrival="169.00" arrivalLane="984508802_0" arrivalPos="57.38" arrivalSpeed="5.08" duration="139.00" routeLength="1108.21" waitingTime="8.00" waitingCount="1" stopTime="0.00" timeLoss="35.48" rerouteNo="0" devices="tripinfo_veh61" vType="passenger" speedFactor="0.92" vaporized=""/>
    <tripinfo id="veh86" depart="42.00" departLane="383582503_0" departPos="2.82" departSpeed="0.00" departDelay="0.72" arrival="169.00" arrivalLane="-43546460#4_1" arrivalPos="197.29" arrivalSpeed="16.16" duration="127.00" routeLength="1745.99" waitingTime="0.00" waitingCount="0" stopTime="0.00" timeLoss="15.15" rerouteNo="0" devices="tripinfo_veh86" vType="passenger" speedFactor="1.25" vaporized=""/>
    <tripinfo id="veh80" depart="39.00" departLane="43546460#4_1" departPos="67.22" departSpeed="0.00" departDelay="0.60" arrival="174.00" arrivalLane="-401741889#0_1" arrivalPos="387.33" arrivalSpeed="14.07" duration="135.00" routeLength="1772.50" waitingTime="0.00" waitingCount="0" stopTime="0.00" timeLoss="12.81" rerouteNo="0" devices="tripinfo_veh80" vType="passenger" speedFactor="1.06" vaporized=""/>
    <tripinfo id="veh184" depart="89.00" departLane="75628811#1_1" departPos="129.07" departSpeed="0.00" departDelay="0.68" arrival="176.00" arrivalLane="143207982#7_1" arrivalPos="27.48" arrivalSpeed="11.56" duration="87.00" routeLength="769.20" waitingTime="13.00" waitingCount="1" stopTime="0.00" timeLoss="25.82" rerouteNo="0" devices="tripinfo_veh184" vType="delivery" speedFactor="0.93" vaporized=""/>
    <tripinfo id="veh233" depart="112.00" departLane="-40314876_1" departPos="14.63" departSpeed="0.00" departDelay="0.16" arrival="176.00" arrivalLane="647621858_0" arrivalPos="84.34" arrivalSpeed="4.58" duration="64.00" routeLength="535.25" waitingTime="0.00" waitingCount="0" stopTime="0.00" timeLoss="11.60" rerouteNo="0" devices="tripinfo_veh233" vType="passenger" speedFactor="0.97" vaporized=""/>
    <tripinfo id="veh36" depart="18.00" departLane="48778480#4_2" departPos="1.18" departSpeed="0.00" departDelay="0.72" arrival="177.00" arrivalLane="40334245#1_1" arrivalPos="44.54" arrivalSpeed="14.27" duration="159.00" routeLength="1685.84" waitingTime="14.00" waitingCount="1" stopTime="0.00" timeLoss="44.06" rerouteNo="0" devices="tripinfo_veh36" vType="passenger" speedFactor="1.09" vaporized=""/>
    <tripinfo id="veh206" depart="100.00" departLane="143207979#3_1" departPos="23.40" departSpeed="0.00" departDelay="1.12" arrival="180.00" arrivalLane="43544138#4_1" arrivalPos="45.15" arrivalSpeed="5.82" duration="80.00" routeLength="429.32" waitingTime="0.00" waitingCount="0" stopTime="0.00" timeLoss="6.99" rerouteNo="0" devices="tripinfo_veh206" vType="bicycle" speedFactor="1.06" vaporized=""/>
    <tripinfo id="veh139" depart="67.00" departLane="-143207979#3_1" departPos="31.30" departSpeed="0.00" departDelay="0.28" arrival="183.00" arrivalLane="-48778517#0_1" arrivalPos="43.62" arrivalSpeed="7.92" duration="116.00" routeLength="1203.86" waitingTime="0.00" waitingCount="0" stopTime="0.00" timeLoss="17.05" rerouteNo="0" devices="tripinfo_veh139" vType="passenger" speedFactor="0.96" vaporized=""/>
    <tripinfo id="veh89" depart="43.00" departLane="-48797767#1_1" departPos="28.86" departSpeed="0.00" departDelay="0.28" arrival="184.00" arrivalLane="647755347#1_1" arrivalPos="34.98" arrivalSpeed="14.31" duration="141.00" routeLength="1278.44" waitingTime="13.00" waitingCount="2" stopTime="0.00" timeLoss="51.04" rerouteNo="0" devices="tripinfo_veh89" vType="passenger" speedFactor="1.10" vaporized=""/>
    <tripinfo id="veh168" depart="81.00" departLane="-43573769#1_1" departPos="44.23" departSpeed="0.00" departDelay="0.36" arrival="184.00" arrivalLane="-43544001#11_1" arrivalPos="49.44" arrivalSpeed="13.53" duration="103.00" routeLength="1040.68" waitingTime="2.00" waitingCount="1" stopTime="0.00" timeLoss="23.73" rerouteNo="0" devices="tripinfo_veh168" vType="passenger" speedFactor="0.98" vaporized=""/>
    <tripinfo id="veh156" depart="75.00" departLane="48788485#4_1" departPos="37.06" departSpeed="0.00" departDelay="0.12" arrival="186.00" arrivalLane="-647998063#1_1" arrivalPos="65.11" arrivalSpeed="13.42" duration="111.00" routeLength="1227.47" waitingTime="0.00" waitingCount="0" stopTime="0.00" timeLoss="18.88" rerouteNo="0" devices="tripinfo_veh156" vType="passenger" speedFactor="1.00" vaporized=""/>
    <tripinfo id="veh235" depart="113.00" departLane="48778526_1" departPos="43.86" departSpeed="0.00" departDelay="0.20" arrival="186.00" arrivalLane="996486454#0_1" arrivalPos="64.29" arrivalSpeed="15.65" duration="73.00" routeLength="763.82" waitingTime="0.00" waitingCount="0" stopTime="0.00" timeLoss="21.09" rerouteNo="0" devices="tripinfo_veh235" vType="passenger" speedFactor="1.14" vaporized=""/>
    <tripinfo id="veh55" depart="27.00" departLane="43546053#1_1" departPos="61.57" departSpeed="0.00" departDelay="0.60" arrival="187.00" arrivalLane="40236203#1_1" arrivalPos="32.69" arrivalSpeed="12.67" duration="160.00" routeLength="1744.69" waitingTime="0.00" waitingCount="0" stopTime="0.00" timeLoss="23.71" rerouteNo="0" devices="tripinfo_veh55" vType="passenger" speedFactor="0.95" vaporized=""/>
    <tripinfo id="veh126" depart="61.00" departLane="43546460#9_1" departPos="11.05" departSpeed="0.00" departDelay="0.52" arrival="187.00" arrivalLane="40304754#5_1" arrivalPos="153.80" arrivalSpeed="7.65" duration="126.00" routeLength="1387.55" waitingTime="0.00" waitingCount="0" stopTime="0.00" timeLoss="13.61" rerouteNo="0" devices="tripinfo_veh126" vType="passenger" speedFactor="0.91" vaporized=""/>
    <tripinfo id="veh43" depart="21.00" departLane="-43544179#1_1" departPos="22.73" departSpeed="0.00" departDelay="0.36" arrival="188.00" arrivalLane="251916699#2.34_1" arrivalPos="28.37" arrivalSpeed="12.70" duration="167.00" routeLength="1766.10" waitingTime="0.00" waitingCount="0" stopTime="0.00" timeLoss="27.81" rerouteNo="0" devices="tripinfo_veh43" vType="motorcycle" speedFactor="1.00" vaporized=""/>
    <tripinfo id="veh57" depart="28.00" departLane="353939570#6_1" departPos="0.18" departSpeed="0.00" departDelay="0.64" arrival="188.00" arrivalLane="1136289989_1" arrivalPos="16.58" arrivalSpeed="7.08" duration="160.00" routeLength="1762.53" waitingTime="2.00" waitingCount="1" stopTime="0.00" timeLoss="23.91" rerouteNo="0" devices="tripinfo_veh57" vType="delivery" speedFactor="0.96" vaporized=""/>
    <tripinfo id="veh70" depart="34.00" departLane="383582501_0" departPos="25.59" departSpeed="0.00" departDelay="0.40" arrival="189.00" arrivalLane="40330557#4_1" arrivalPos="4.47" arrivalSpeed="11.34" duration="155.00" routeLength="1517.18" waitingTime="0.00" waitingCount="0" stopTime="0.00" timeLoss="16.79" rerouteNo="0" devices="tripinfo_veh70" vType="passenger" speedFactor="0.83" vaporized=""/>
    <tripinfo id="veh172" depart="83.00" departLane="-647347140#1_1" departPos="3.37" departSpeed="0.00" departDelay="0.44" arrival="189.00" arrivalLane="-40345956#1_1" arrivalPos="78.52" arrivalSpeed="15.06" duration="106.00" routeLength="1215.32" waitingTime="1.00" waitingCount="1" stopTime="0.00" timeLoss="22.18" rerouteNo="0" devices="tripinfo_veh172" vType="motorcycle" speedFactor="1.10" vaporized=""/>
    <tripinfo id="veh214" depart="103.00" departLane="48778501_1" departPos="69.55" departSpeed="0.00" departDelay="0.28" arrival="189.00" arrivalLane="43544184#4_1" arrivalPos="17.47" arrivalSpeed="9.31" duration="86.00" routeLength="908.43" waitingTime="0.00" waitingCount="0" stopTime="0.00" timeLoss="13.25" rerouteNo="0" devices="tripinfo_veh214" vType="passenger" speedFactor="0.94" vaporized=""/>
    <tripinfo id="veh310" depart="149.00" departLane="304695350#2_1" departPos="3.15" departSpeed="0.00" departDelay="0.20" arrival="190.00" arrivalLane="-530103975#1_1" arrivalPos="17.63" arrivalSpeed="13.30" duration="41.00" routeLength="443.02" waitingTime="0.00" waitingCount="0" stopTime="0.00" timeLoss="9.14" rerouteNo="0" devices="tripinfo_veh310" vType="passenger" speedFactor="1.08" vaporized=""/>
    <tripinfo id="veh117" depart="57.00" departLane="-48778461#1_1" departPos="21.82" departSpeed="0.00" departDelay="0.84" arrival="192.00" arrivalLane="-92198453#2_1" arrivalPos="114.31" arrivalSpeed="11.92" duration="135.00" routeLength="1309.07" waitingTime="0.00" waitingCount="0" stopTime="0.00" timeLoss="24.16" rerouteNo="0" devices="tripinfo_veh117" vType="passenger" speedFactor="0.89" vaporized=""/>
    <tripinfo id="veh1" depart="1.00" departLane="43544001#1_1" departPos="1.12" departSpeed="0.00" departDelay="0.52" arrival="193.00" arrivalLane="E15_1" arrivalPos="55.92" arrivalSpeed="14.14" duration="192.00" routeLength="1915.54" waitingTime="42.00" waitingCount="2" stopTime="0.00" timeLoss="63.60" rerouteNo="0" devices="tripinfo_veh1" vType="passenger" speedFactor="1.08" vaporized=""/>
    <tripinfo id="veh161" depart="78.00" departLane="43546109_1" departPos="154.90" departSpeed="0.00" departDelay="0.72" arrival="196.00" arrivalLane="-256555440#1_1" arrivalPos="58.59" arrivalSpeed="10.86" duration="118.00" routeLength="1198.44" waitingTime="0.00" waitingCount="0" stopTime="0.00" timeLoss="15.93" rerouteNo="0" devices="tripinfo_veh161" vType="passenger" speedFactor="0.87" vaporized=""/>
    <tripinfo id="veh9" depart="5.00" departLane="-859728207_0" departPos="8.42" departSpeed="0.00" departDelay="0.68" arrival="197.00" arrivalLane="671642318#0_1" arrivalPos="87.54" arrivalSpeed="11.33" duration="192.00" routeLength="1642.45" waitingTime="20.00" waitingCount="1" stopTime="0.00" timeLoss="42.42" rerouteNo="0" devices="tripinfo_veh9" vType="passenger" speedFactor="0.90" vaporized=""/>
    <tripinfo id="veh114" depart="55.00" departLane="48778456#1_1" departPos="38.64" departSpeed="0.00" departDelay="0.28" arrival="198.00" arrivalLane="1136279388_0" arrivalPos="33.51" arrivalSpeed="4.65" duration="143.00" routeLength="1277.99" waitingTime="18.00" waitingCount="2" stopTime="0.00" timeLoss="48.65" rerouteNo="0" devices="tripinfo_veh114" vType="delivery" speedFactor="1.06" vaporized=""/>
    <tripinfo id="veh23" depart="12.00" departLane="-43546064#3_1" departPos="56.23" departSpeed="0.00" departDelay="0.96" arrival="199.00" arrivalLane="1136117604_1" arrivalPos="21.30" arrivalSpeed="11.33" duration="187.00" routeLength="2085.10" waitingTime="2.00" waitingCount="1" stopTime="0.00" timeLoss="50.55" rerouteNo="0" devices="tripinfo_veh23" vType="passenger" speedFactor="1.15" vaporized=""/>
    <tripinfo id="veh50" depart="24.00" departLane="40299264#1_1" departPos="19.74" departSpeed="0.00" departDelay="0.00" arrival="199.00" arrivalLane="-48736607#1_1" arrivalPos="193.73" arrivalSpeed="15.51" duration="175.00" routeLength="1125.49" waitingTime="72.00" waitingCount="2" stopTime="0.00" timeLoss="99.15" rerouteNo="0" devices="tripinfo_veh50" vType="passenger" speedFactor="1.12" vaporized=""/>
    <tripinfo id="veh81" depart="39.00" departLane="258551281_1" departPos="19.27" departSpeed="0.00" departDelay="0.12" arrival="200.00" arrivalLane="-256684296_0" arrivalPos="80.07" arrivalSpeed="1.76" duration="161.00" routeLength="846.10" waitingTime="38.00" waitingCount="1" stopTime="0.00" timeLoss="64.24" rerouteNo="0" devices="tripinfo_veh81" vType="passenger" speedFactor="0.89" vaporized=""/>
    <tripinfo id="veh88" depart="43.00" departLane="222608881#0_1" departPos="85.54" departSpeed="0.00" departDelay="0.76" arrival="200.00" arrivalLane="-43546115_1" arrivalPos="162.45" arrivalSpeed="13.06" duration="157.00" routeLength="1665.19" waitingTime="0.00" waitingCount="0" stopTime="0.00" timeLoss="33.95" rerouteNo="0" devices="tripinfo_veh88" vType="delivery" speedFactor="1.01" vaporized=""/>
    <personinfo id="ped13" depart="65.00" type="DEFAULT_PEDTYPE" speedFactor="0.98" duration="137.00" waitingTime="0.00" timeLoss="14.99" traveltime="137.00">
        <walk depart="65.00" departPos="0.00" arrival="202.00" arrivalPos="48.01" duration="137.00" routeLength="165.38" timeLoss="14.99" maxSpeed="1.36"/>
    </personinfo>
    <tripinfo id="veh105" depart="51.00" departLane="48736607#0_1" departPos="19.96" departSpeed="0.00" departDelay="0.60" arrival="202.00" arrivalLane="-48736601_1" arrivalPos="280.11" arrivalSpeed="10.93" duration="151.00" routeLength="1153.27" waitingTime="27.00" waitingCount="1" stopTime="0.00" timeLoss="48.70" rerouteNo="0" devices="tripinfo_veh105" vType="motorcycle" speedFactor="0.84" vaporized=""/>
    <tripinfo id="veh85" depart="41.00" departLane="48736610#1_1" departPos="0.81" departSpeed="0.00" departDelay="0.20" arrival="204.00" arrivalLane="222605084#0_1" arrivalPos="0.21" arrivalSpeed="5.67" duration="163.00" routeLength="1597.30" waitingTime="0.00" waitingCount="0" stopTime="0.00" timeLoss="35.50" rerouteNo="0" devices="tripinfo_veh85" vType="delivery" speedFactor="1.03" vaporized=""/>
    <tripinfo id="veh135" depart="65.00" departLane="383582513_0" departPos="52.58" departSpeed="0.00" departDelay="0.20" arrival="204.00" arrivalLane="-43544001#7_1" arrivalPos="45.62" arrivalSpeed="13.05" duration="139.00" routeLength="1397.63" waitingTime="6.00" waitingCount="1" stopTime="0.00" timeLoss="32.63" rerouteNo="0" devices="tripinfo_veh135" vType="passenger" speedFactor="0.98" vaporized=""/>
    <tripinfo id="veh197" depart="95.00" departLane="48778502#0_1" departPos="0.63" departSpeed="0.00" departDelay="0.44" arrival="205.00" arrivalLane="48778512_1" arrivalPos="67.72" arrivalSpeed="8.81" duration="110.00" routeLength="1145.97" waitingTime="0.00" waitingCount="0" stopTime="0.00" timeLoss="23.71" rerouteNo="0" devices="tripinfo_veh197" vType="passenger" speedFactor="1.07" vaporized=""/>
    <tripinfo id="veh179" depart="86.00" departLane="647762524_1" departPos="24.79" departSpeed="0.00" departDelay="0.08" arrival="209.00" arrivalLane="48797766#0_1" arrivalPos="21.21" arrivalSpeed="12.49" duration="123.00" routeLength="979.47" waitingTime="12.00" waitingCount="1" stopTime="0.00" timeLoss="34.75" rerouteNo="0" devices="tripinfo_veh179" vType="passenger" speedFactor="0.92" vaporized=""/>
    <tripinfo id="veh293" depart="141.00" departLane="1054663939_1" departPos="19.95" departSpeed="0.00" departDelay="0.36" arrival="209.00" arrivalLane="-1135855912_1" arrivalPos="95.20" arrivalSpeed="12.56" duration="68.00" routeLength="688.91" waitingTime="0.00" waitingCount="0" stopTime="0.00" timeLoss="10.13" rerouteNo="0" devices="tripinfo_veh293" vType="passenger" speedFactor="0.90" vaporized=""/>
    <tripinfo id="veh284" depart="137.00" departLane="-898519021_1" departPos="51.40" departSpeed="0.00" departDelay="0.68" arrival="211.00" arrivalLane="945793485#1_1" arrivalPos="18.52" arrivalSpeed="14.17" duration="74.00" routeLength="744.55" waitingTime="0.00" waitingCount="0" stopTime="0.00" timeLoss="17.74" rerouteNo="0" devices="tripinfo_veh284" vType="passenger" speedFactor="1.05" vaporized=""/>
    <tripinfo id="veh209" depart="101.00" departLane="48778526_1" departPos="35.18" departSpeed="0.00" departDelay="0.68" arrival="215.00" arrivalLane="-48778508#4_1" arrivalPos="24.74" arrivalSpeed="15.12" duration="114.00" routeLength="1260.56" waitingTime="1.00" waitingCount="1" stopTime="0.00" timeLoss="30.84" rerouteNo="0" devices="tripinfo_veh209" vType="passenger" speedFactor="1.13" vaporized=""/>
    <tripinfo id="veh116" depart="56.00" departLane="-40330575#1_1" departPos="2.32" departSpeed="0.00" departDelay="0.32" arrival="216.00" arrivalLane="43546053#2_1" arrivalPos="188.18" arrivalSpeed="16.01" duration="160.00" routeLength="2080.94" waitingTime="0.00" waitingCount="0" stopTime="0.00" timeLoss="30.93" rerouteNo="0" devices="tripinfo_veh116" vType="passenger" speedFactor="1.21" vaporized=""/>
    <tripinfo id="veh112" depart="54.00" departLane="422283114_0" departPos="42.88" departSpeed="0.00" departDelay="0.24" arrival="218.00" arrivalLane="-1135855912_1" arrivalPos="95.20" arrivalSpeed="15.33" duration="164.00" routeLength="2001.40" waitingTime="0.00" waitingCount="0" stopTime="0.00" timeLoss="18.35" rerouteNo="0" devices="tripinfo_veh112" vType="passenger" speedFactor="1.11" vaporized=""/>
    <tripinfo id="veh154" depart="74.00" departLane="40299264#2_1" departPos="23.86" departSpeed="0.00" departDelay="0.08" arrival="226.00" arrivalLane="-48736614#1_1" arrivalPos="221.38" arrivalSpeed="11.95" duration="152.00" routeLength="1360.88" waitingTime="11.00" waitingCount="2" stopTime="0.00" timeLoss="38.20" rerouteNo="0" devices="tripinfo_veh154" vType="passenger" speedFactor="0.90" vaporized=""/>
    <tripinfo id="veh190" depart="92.00" departLane="-43544001#6_1" departPos="23.39" departSpeed="0.00" departDelay="0.80" arrival="226.00" arrivalLane="1136289992_1" arrivalPos="17.60" arrivalSpeed="6.12" duration="134.00" routeLength="1120.82" waitingTime="0.00" waitingCount="0" stopTime="0.00" timeLoss="34.57" rerouteNo="0" devices="tripinfo_veh190" vType="passenger" speedFactor="0.89" vaporized=""/>
    <personinfo id="ped31" depart="155.00" type="DEFAULT_PEDTYPE" speedFactor="1.12" duration="73.00" waitingTime="0.00" timeLoss="7.33" traveltime="73.00">
        <walk depart="155.00" departPos="0.00" arrival="228.00" arrivalPos="45.31" duration="73.00" routeLength="102.22" timeLoss="7.33" maxSpeed="1.56"/>
    </personinfo>
    <tripinfo id="veh299" depart="144.00" departLane="-647755347#0_1" departPos="46.88" departSpeed="0.00" departDelay="0.48" arrival="229.00" arrivalLane="48797770_1" arrivalPos="20.27" arrivalSpeed="11.11" duration="85.00" routeLength="578.28" waitingTime="11.00" waitingCount="1" stopTime="0.00" timeLoss="30.87" rerouteNo="0" devices="tripinfo_veh299" vType="passenger" speedFactor="1.00" vaporized=""/>
    <tripinfo id="veh3" depart="2.00" departLane="40330571#1_1" departPos="0.10" departSpeed="0.00" departDelay="0.56" arrival="231.00" arrivalLane="647621857_0" arrivalPos="41.48" arrivalSpeed="4.67" duration="229.00" routeLength="2095.41" waitingTime="21.00" waitingCount="2" stopTime="0.00" timeLoss="55.58" rerouteNo="0" devices="tripinfo_veh3" vType="passenger" speedFactor="0.94" vaporized=""/>
    <tripinfo id="veh91" depart="44.00" departLane="383582513_0" departPos="35.07" departSpeed="0.00" departDelay="0.32" arrival="233.00" arrivalLane="48778524#4_1" arrivalPos="30.32" arrivalSpeed="13.39" duration="189.00" routeLength="1790.15" waitingTime="15.00" waitingCount="2" stopTime="0.00" timeLoss="47.86" rerouteNo="0" devices="tripinfo_veh91" vType="passenger" speedFactor="0.97" vaporized=""/>
    <tripinfo id="veh256" depart="123.00" departLane="40265793#0_1" departPos="65.88" departSpeed="0.00" departDelay="0.12" arrival="233.00" arrivalLane="-945794108_1" arrivalPos="20.90" arrivalSpeed="8.73" duration="110.00" routeLength="1109.34" waitingTime="5.00" waitingCount="1" stopTime="0.00" timeLoss="34.49" rerouteNo="0" devices="tripinfo_veh256" vType="passenger" speedFactor="1.13" vaporized=""/>
    <tripinfo id="veh148" depart="73.00" departLane="48778498#1_1" departPos="11.28" departSpeed="0.00" departDelay="1.96" arrival="236.00" arrivalLane="-222605084#9_1" arrivalPos="2.21" arrivalSpeed="3.95" duration="163.00" routeLength="1110.07" waitingTime="18.00" waitingCount="1" stopTime="0.00" timeLoss="49.79" rerouteNo="0" devices="tripinfo_veh148" vType="passenger" speedFactor="0.91" vaporized=""/>
    <tripinfo id="veh158" depart="76.00" departLane="143207979#6_1" departPos="154.55" departSpeed="0.00" departDelay="0.16" arrival="236.00" arrivalLane="40330575#0_1" arrivalPos="31.86" arrivalSpeed="11.71" duration="160.00" routeLength="1748.23" waitingTime="0.00" waitingCount="0" stopTime="0.00" timeLoss="21.28" rerouteNo="0" devices="tripinfo_veh158" vType="delivery" speedFactor="0.94" vaporized=""/>