<?xml version="1.0" encoding="UTF-8"?>

<!-- generated on 2025-06-15 22:12:35 by Eclipse SUMO sumo Version 1.22.0
<sumoConfiguration xmlns:xsi="http://www.w3.org/2001/XMLSchema-instance" xsi:noNamespaceSchemaLocation="http://sumo.dlr.de/xsd/sumoConfiguration.xsd">

    <input>
        <net-file value="E:/licenta/oras-mediu/2025-06-05-11-45-23\osm.net.xml"/>
        <route-files value="E:/licenta/oras-mediu/2025-06-05-11-45-23\full.rou.xml,E:/licenta/oras-mediu/2025-06-05-11-45-23\ ped.rou.xml,E:/licenta/oras-mediu/2025-06-05-11-45-23\ truck.rou.xml"/>
        <additional-files value="E:/licenta/oras-mediu/2025-06-05-11-45-23\osm.poly.xml,E:/licenta/oras-mediu/2025-06-05-11-45-23\ vtypes.xml"/>
    </input>

    <output>
        <summary-output value="E:/licenta/oras-mediu/2025-06-05-11-45-23\summary.xml"/>
        <tripinfo-output value="E:/licenta/oras-mediu/2025-06-05-11-45-23\tripinfo.xml"/>
    </output>

    <processing>
        <ignore-route-errors value="true"/>
        <tls.actuated.jam-threshold value="30"/>
    </processing>

    <routing>
        <device.rerouting.adaptation-steps value="18"/>
        <device.rerouting.adaptation-interval value="10"/>
    </routing>

    <report>
        <verbose value="true"/>
        <duration-log.statistics value="true"/>
        <no-step-log value="true"/>
    </report>

    <traci_server>
        <remote-port value="49347"/>
    </traci_server>

    <gui_only>
        <gui-settings-file value="E:/licenta/oras-mediu/2025-06-05-11-45-23\osm.view.xml"/>
    </gui_only>

</sumoConfiguration>
-->

<tripinfos xmlns:xsi="http://www.w3.org/2001/XMLSchema-instance" xsi:noNamespaceSchemaLocation="http://sumo.dlr.de/xsd/tripinfo_file.xsd">
    <tripinfo id="veh6" depart="3.00" departLane="-353939570#7_1" departPos="8.92" departSpeed="0.00" departDelay="0.12" arrival="57.00" arrivalLane="-40334244#3_1" arrivalPos="176.10" arrivalSpeed="12.54" duration="54.00" routeLength="578.98" waitingTime="0.00" waitingCount="0" stopTime="0.00" timeLoss="7.77" rerouteNo="0" devices="tripinfo_veh6" vType="passenger" speedFactor="0.92" vaporized=""/>
    <tripinfo id="veh91" depart="44.00" departLane="-43544138#6_1" departPos="22.31" departSpeed="0.00" departDelay="0.32" arrival="58.00" arrivalLane="-43544138#4_1" arrivalPos="45.15" arrivalSpeed="16.26" duration="14.00" routeLength="130.23" waitingTime="0.00" waitingCount="0" stopTime="0.00" timeLoss="5.60" rerouteNo="0" devices="tripinfo_veh91" vType="passenger" speedFactor="1.25" vaporized=""/>
    <tripinfo id="veh9" depart="5.00" departLane="-48736631_1" departPos="42.06" departSpeed="0.00" departDelay="0.68" arrival="64.00" arrivalLane="48736621#1_1" arrivalPos="24.45" arrivalSpeed="4.78" duration="59.00" routeLength="262.22" waitingTime="0.00" waitingCount="0" stopTime="0.00" timeLoss="7.17" rerouteNo="0" devices="tripinfo_veh9" vType="bicycle" speedFactor="0.93" vaporized=""/>
    <personinfo id="ped5" depart="25.00" type="DEFAULT_PEDTYPE" speedFactor="1.00" duration="47.00" waitingTime="0.00" timeLoss="5.41" traveltime="47.00">
        <walk depart="25.00" departPos="0.00" arrival="72.00" arrivalPos="8.26" duration="47.00" routeLength="57.81" timeLoss="5.41" maxSpeed="1.39"/>
    </personinfo>
    <tripinfo id="veh85" depart="41.00" departLane="996984133_1" departPos="11.50" departSpeed="0.00" departDelay="0.20" arrival="83.00" arrivalLane="-945794110_1" arrivalPos="52.39" arrivalSpeed="8.39" duration="42.00" routeLength="313.76" waitingTime="0.00" waitingCount="0" stopTime="0.00" timeLoss="12.65" rerouteNo="0" devices="tripinfo_veh85" vType="passenger" speedFactor="1.06" vaporized=""/>
    <tripinfo id="veh2" depart="1.00" departLane="33909936#0_1" departPos="11.04" departSpeed="0.00" departDelay="0.04" arrival="85.00" arrivalLane="-1136119743#0_1" arrivalPos="24.46" arrivalSpeed="8.01" duration="84.00" routeLength="751.76" waitingTime="0.00" waitingCount="0" stopTime="0.00" timeLoss="19.79" rerouteNo="0" devices="tripinfo_veh2" vType="passenger" speedFactor="1.08" vaporized=""/>
    <tripinfo id="veh132" depart="64.00" departLane="-945793486#1_0" departPos="19.36" departSpeed="0.00" departDelay="0.64" arrival="86.00" arrivalLane="48778478#0_1" arrivalPos="0.20" arrivalSpeed="12.72" duration="22.00" routeLength="136.51" waitingTime="0.00" waitingCount="0" stopTime="0.00" timeLoss="6.61" rerouteNo="0" devices="tripinfo_veh132" vType="motorcycle" speedFactor="1.01" vaporized=""/>
    <tripinfo id="veh38" depart="19.00" departLane="43544138#1_1" departPos="8.35" departSpeed="0.00" departDelay="0.76" arrival="89.00" arrivalLane="1136289992_1" arrivalPos="17.60" arrivalSpeed="7.18" duration="70.00" routeLength="628.87" waitingTime="0.00" waitingCount="0" stopTime="0.00" timeLoss="16.36" rerouteNo="0" devices="tripinfo_veh38" vType="passenger" speedFactor="0.95" vaporized=""/>
    <personinfo id="ped0" depart="0.00" type="DEFAULT_PEDTYPE" speedFactor="1.03" duration="103.00" waitingTime="0.00" timeLoss="11.29" traveltime="103.00">
        <walk depart="0.00" departPos="0.00" arrival="103.00" arrivalPos="14.37" duration="103.00" routeLength="131.24" timeLoss="11.29" maxSpeed="1.43"/>
    </personinfo>
    <tripinfo id="veh118" depart="57.00" departLane="48736642_1" departPos="61.57" departSpeed="0.00" departDelay="0.36" arrival="104.00" arrivalLane="-48736639#0_1" arrivalPos="107.97" arrivalSpeed="15.16" duration="47.00" routeLength="420.37" waitingTime="0.00" waitingCount="0" stopTime="0.00" timeLoss="17.75" rerouteNo="0" devices="tripinfo_veh118" vType="passenger" speedFactor="1.11" vaporized=""/>
    <tripinfo id="veh34" depart="17.00" departLane="-647621857_0" departPos="7.44" departSpeed="0.00" departDelay="0.68" arrival="113.00" arrivalLane="-1135855912_1" arrivalPos="95.20" arrivalSpeed="14.33" duration="96.00" routeLength="1085.01" waitingTime="0.00" waitingCount="0" stopTime="0.00" timeLoss="15.00" rerouteNo="0" devices="tripinfo_veh34" vType="passenger" speedFactor="1.07" vaporized=""/>
    <tripinfo id="veh33" depart="16.00" departLane="48736614#1_1" departPos="6.16" departSpeed="0.00" departDelay="0.16" arrival="116.00" arrivalLane="383582853_0" arrivalPos="4.52" arrivalSpeed="5.39" duration="100.00" routeLength="1018.29" waitingTime="0.00" waitingCount="0" stopTime="0.00" timeLoss="18.08" rerouteNo="0" devices="tripinfo_veh33" vType="passenger" speedFactor="1.03" vaporized=""/>
    <tripinfo id="veh30" depart="15.00" departLane="48778443#2_1" departPos="18.59" departSpeed="0.00" departDelay="0.60" arrival="120.00" arrivalLane="-251916699#0_1" arrivalPos="41.20" arrivalSpeed="12.27" duration="105.00" routeLength="1054.37" waitingTime="6.00" waitingCount="1" stopTime="0.00" timeLoss="23.53" rerouteNo="0" devices="tripinfo_veh30" vType="passenger" speedFactor="0.94" vaporized=""/>
    <tripinfo id="veh141" depart="68.00" departLane="-48778510#1_1" departPos="79.03" departSpeed="0.00" departDelay="0.32" arrival="127.00" arrivalLane="-43544184#4_1" arrivalPos="17.47" arrivalSpeed="9.68" duration="59.00" routeLength="576.37" waitingTime="0.00" waitingCount="0" stopTime="0.00" timeLoss="14.04" rerouteNo="0" devices="tripinfo_veh141" vType="passenger" speedFactor="0.98" vaporized=""/>
    <tripinfo id="veh92" depart="45.00" departLane="43546064#3_1" departPos="107.67" departSpeed="0.00" departDelay="0.84" arrival="129.00" arrivalLane="48778524#0_1" arrivalPos="98.21" arrivalSpeed="11.40" duration="84.00" routeLength="874.90" waitingTime="0.00" waitingCount="0" stopTime="0.00" timeLoss="9.24" rerouteNo="0" devices="tripinfo_veh92" vType="passenger" speedFactor="0.87" vaporized=""/>
    <tripinfo id="veh1" depart="1.00" departLane="250295383#0_1" departPos="1.36" departSpeed="0.00" departDelay="0.52" arrival="131.00" arrivalLane="859732803#0_0" arrivalPos="20.07" arrivalSpeed="4.95" duration="130.00" routeLength="1534.53" waitingTime="0.00" waitingCount="0" stopTime="0.00" timeLoss="22.15" rerouteNo="0" devices="tripinfo_veh1" vType="passenger" speedFactor="1.08" vaporized=""/>
    <tripinfo id="veh48" depart="24.00" departLane="-40314853#3_1" departPos="16.74" departSpeed="0.00" departDelay="0.96" arrival="133.00" arrivalLane="273834906_1" arrivalPos="76.57" arrivalSpeed="11.81" duration="109.00" routeLength="1059.42" waitingTime="0.00" waitingCount="0" stopTime="0.00" timeLoss="19.06" rerouteNo="0" devices="tripinfo_veh48" vType="motorcycle" speedFactor="0.90" vaporized=""/>
    <tripinfo id="veh61" depart="30.00" departLane="671642313_1" departPos="6.75" departSpeed="0.00" departDelay="0.72" arrival="136.00" arrivalLane="859729931_0" arrivalPos="101.28" arrivalSpeed="4.97" duration="106.00" routeLength="1277.02" waitingTime="0.00" waitingCount="0" stopTime="0.00" timeLoss="11.45" rerouteNo="0" devices="tripinfo_veh61" vType="passenger" speedFactor="1.12" vaporized=""/>
    <tripinfo id="veh74" depart="36.00" departLane="143207979#4_1" departPos="3.87" departSpeed="0.00" departDelay="0.48" arrival="138.00" arrivalLane="-43544001#14_1" arrivalPos="60.31" arrivalSpeed="13.77" duration="102.00" routeLength="1141.34" waitingTime="0.00" waitingCount="0" stopTime="0.00" timeLoss="16.96" rerouteNo="0" devices="tripinfo_veh74" vType="passenger" speedFactor="1.01" vaporized=""/>
    <tripinfo id="veh99" depart="48.00" departLane="264868325_1" departPos="58.24" departSpeed="0.00" departDelay="0.48" arrival="143.00" arrivalLane="-647383048_1" arrivalPos="106.54" arrivalSpeed="11.94" duration="95.00" routeLength="813.15" waitingTime="3.00" waitingCount="1" stopTime="0.00" timeLoss="28.56" rerouteNo="0" devices="tripinfo_veh99" vType="motorcycle" speedFactor="0.98" vaporized=""/>
    <tripinfo id="veh126" depart="61.00" departLane="-40236220#1_1" departPos="13.64" departSpeed="0.00" departDelay="0.52" arrival="144.00" arrivalLane="40266907#1_1" arrivalPos="33.57" arrivalSpeed="14.28" duration="83.00" routeLength="864.83" waitingTime="0.00" waitingCount="0" stopTime="0.00" timeLoss="17.87" rerouteNo="0" devices="tripinfo_veh126" vType="motorcycle" speedFactor="1.04" vaporized=""/>
    <tripinfo id="veh124" depart="60.00" departLane="250295383#1_1" departPos="28.64" departSpeed="0.00" departDelay="0.48" arrival="153.00" arrivalLane="48778475#1_1" arrivalPos="25.99" arrivalSpeed="12.42" duration="93.00" routeLength="863.44" waitingTime="6.00" waitingCount="1" stopTime="0.00" timeLoss="25.64" rerouteNo="0" devices="tripinfo_veh124" vType="passenger" speedFactor="0.97" vaporized=""/>
    <tripinfo id="veh117" depart="57.00" departLane="-43546789#1_1" departPos="33.79" departSpeed="0.00" departDelay="0.84" arrival="154.00" arrivalLane="40236153#1_1" arrivalPos="105.33" arrivalSpeed="14.56" duration="97.00" routeLength="698.49" waitingTime="24.00" waitingCount="1" stopTime="0.00" timeLoss="44.91" rerouteNo="0" devices="tripinfo_veh117" vType="passenger" speedFactor="1.06" vaporized=""/>
    <tripinfo id="veh71" depart="35.00" departLane="48778495#1_1" departPos="6.66" departSpeed="0.00" departDelay="0.92" arrival="158.00" arrivalLane="-945793486#0_0" arrivalPos="6.00" arrivalSpeed="5.05" duration="123.00" routeLength="1289.20" waitingTime="0.00" waitingCount="0" stopTime="0.00" timeLoss="24.93" rerouteNo="0" devices="tripinfo_veh71" vType="passenger" speedFactor="1.08" vaporized=""/>
    <tripinfo id="veh84" depart="41.00" departLane="-945793491#0_1" departPos="10.16" departSpeed="0.00" departDelay="0.68" arrival="161.00" arrivalLane="-40334245#0_1" arrivalPos="85.83" arrivalSpeed="13.15" duration="120.00" routeLength="872.40" waitingTime="10.00" waitingCount="2" stopTime="0.00" timeLoss="34.94" rerouteNo="0" devices="tripinfo_veh84" vType="delivery" speedFactor="0.98" vaporized=""/>
    <tripinfo id="veh94" depart="46.00" departLane="-222609002#2_1" departPos="8.32" departSpeed="0.00" departDelay="0.88" arrival="161.00" arrivalLane="-945793491#0_1" arrivalPos="34.62" arrivalSpeed="5.62" duration="115.00" routeLength="1036.39" waitingTime="0.00" waitingCount="0" stopTime="0.00" timeLoss="22.11" rerouteNo="0" devices="tripinfo_veh94" vType="passenger" speedFactor="1.10" vaporized=""/>
    <tripinfo id="veh106" depart="51.00" departLane="43547579#4_1" departPos="194.88" departSpeed="0.00" departDelay="0.12" arrival="161.00" arrivalLane="40236144#0_1" arrivalPos="70.01" arrivalSpeed="14.70" duration="110.00" routeLength="1166.73" waitingTime="5.00" waitingCount="1" stopTime="0.00" timeLoss="33.46" rerouteNo="0" devices="tripinfo_veh106" vType="passenger" speedFactor="1.12" vaporized=""/>
    <tripinfo id="veh244" depart="118.00" departLane="945793490#4_1" departPos="42.04" departSpeed="0.00" departDelay="0.88" arrival="162.00" arrivalLane="-1250915720#1_1" arrivalPos="5.09" arrivalSpeed="5.46" duration="44.00" routeLength="238.62" waitingTime="0.00" waitingCount="0" stopTime="0.00" timeLoss="5.67" rerouteNo="0" devices="tripinfo_veh244" vType="passenger" speedFactor="1.14" vaporized=""/>
    <tripinfo id="veh68" depart="33.00" departLane="-578560104#6_1" departPos="9.89" departSpeed="0.00" departDelay="0.36" arrival="163.00" arrivalLane="-40330571#3_1" arrivalPos="199.92" arrivalSpeed="11.42" duration="130.00" routeLength="933.38" waitingTime="33.00" waitingCount="1" stopTime="0.00" timeLoss="52.01" rerouteNo="0" devices="tripinfo_veh68" vType="passenger" speedFactor="0.90" vaporized=""/>
    <tripinfo id="veh129" depart="62.00" departLane="-1250915721#2_1" departPos="10.51" departSpeed="0.00" departDelay="0.08" arrival="163.00" arrivalLane="-48778502#1_1" arrivalPos="195.25" arrivalSpeed="14.45" duration="101.00" routeLength="1007.04" waitingTime="1.00" waitingCount="1" stopTime="0.00" timeLoss="16.65" rerouteNo="0" devices="tripinfo_veh129" vType="passenger" speedFactor="1.07" vaporized=""/>
    <tripinfo id="veh47" depart="23.00" departLane="48778446#2_1" departPos="3.32" departSpeed="0.00" departDelay="0.44" arrival="164.00" arrivalLane="-48797767#0_1" arrivalPos="21.72" arrivalSpeed="5.93" duration="141.00" routeLength="782.03" waitingTime="0.00" waitingCount="0" stopTime="0.00" timeLoss="12.38" rerouteNo="0" devices="tripinfo_veh47" vType="bicycle" speedFactor="1.10" vaporized=""/>
    <tripinfo id="veh209" depart="101.00" departLane="-43573547#0_1" departPos="104.61" departSpeed="0.00" departDelay="0.68" arrival="164.00" arrivalLane="-48778498#2_1" arrivalPos="98.02" arrivalSpeed="13.92" duration="63.00" routeLength="668.81" waitingTime="0.00" waitingCount="0" stopTime="0.00" timeLoss="15.13" rerouteNo="0" devices="tripinfo_veh209" vType="passenger" speedFactor="1.07" vaporized=""/>
    <tripinfo id="veh155" depart="75.00" departLane="40265793#1_1" departPos="17.04" departSpeed="0.00" departDelay="0.60" arrival="165.00" arrivalLane="1136289989_1" arrivalPos="16.58" arrivalSpeed="6.78" duration="90.00" routeLength="829.11" waitingTime="3.00" waitingCount="1" stopTime="0.00" timeLoss="16.79" rerouteNo="0" devices="tripinfo_veh155" vType="passenger" speedFactor="0.89" vaporized=""/>
    <tripinfo id="veh264" depart="127.00" departLane="1250915723#0_1" departPos="10.82" departSpeed="0.00" departDelay="0.28" arrival="165.00" arrivalLane="945793490#2_1" arrivalPos="11.86" arrivalSpeed="5.56" duration="38.00" routeLength="191.06" waitingTime="0.00" waitingCount="0" stopTime="0.00" timeLoss="7.60" rerouteNo="0" devices="tripinfo_veh264" vType="passenger" speedFactor="1.13" vaporized=""/>
    <tripinfo id="veh8" depart="4.00" departLane="-43544001#6_1" departPos="17.87" departSpeed="0.00" departDelay="0.16" arrival="166.00" arrivalLane="-1205541344_0" arrivalPos="82.96" arrivalSpeed="4.62" duration="162.00" routeLength="1607.26" waitingTime="0.00" waitingCount="0" stopTime="0.00" timeLoss="19.89" rerouteNo="0" devices="tripinfo_veh8" vType="passenger" speedFactor="0.90" vaporized=""/>
    <tripinfo id="veh186" depart="90.00" departLane="-43546935#3_1" departPos="3.48" departSpeed="0.00" departDelay="0.72" arrival="167.00" arrivalLane="996486453_1" arrivalPos="111.92" arrivalSpeed="12.04" duration="77.00" routeLength="732.93" waitingTime="0.00" waitingCount="0" stopTime="0.00" timeLoss="15.42" rerouteNo="0" devices="tripinfo_veh186" vType="passenger" speedFactor="0.91" vaporized=""/>
    <tripinfo id="veh0" depart="0.00" departLane="-222605084#1_1" departPos="0.33" departSpeed="0.00" departDelay="0.00" arrival="171.00" arrivalLane="-48778517#0_1" arrivalPos="43.62" arrivalSpeed="5.84" duration="171.00" routeLength="1636.23" waitingTime="0.00" waitingCount="0" stopTime="0.00" timeLoss="29.68" rerouteNo="0" devices="tripinfo_veh0" vType="motorcycle" speedFactor="0.98" vaporized=""/>
    <tripinfo id="veh90" depart="44.00" departLane="40330557#3_1" departPos="21.80" departSpeed="0.00" departDelay="0.80" arrival="172.00" arrivalLane="-671642327_0" arrivalPos="205.40" arrivalSpeed="4.70" duration="128.00" routeLength="1152.57" waitingTime="1.00" waitingCount="1" stopTime="0.00" timeLoss="22.83" rerouteNo="0" devices="tripinfo_veh90" vType="delivery" speedFactor="1.03" vaporized=""/>
    <tripinfo id="veh4" depart="2.00" departLane="-48736621#0_1" departPos="11.31" departSpeed="0.00" departDelay="0.08" arrival="173.00" arrivalLane="492965073#10_1" arrivalPos="59.45" arrivalSpeed="13.01" duration="171.00" routeLength="1410.87" waitingTime="45.00" waitingCount="2" stopTime="0.00" timeLoss="69.95" rerouteNo="0" devices="tripinfo_veh4" vType="passenger" speedFactor="1.02" vaporized=""/>
    <tripinfo id="veh39" depart="19.00" departLane="43546105#2_1" departPos="2.31" departSpeed="0.00" departDelay="0.28" arrival="174.00" arrivalLane="-43546109_1" arrivalPos="180.58" arrivalSpeed="11.13" duration="155.00" routeLength="1596.52" waitingTime="0.00" waitingCount="0" stopTime="0.00" timeLoss="20.37" rerouteNo="0" devices="tripinfo_veh39" vType="passenger" speedFactor="0.88" vaporized=""/>
    <tripinfo id="veh134" depart="65.00" departLane="-43573547#0_1" departPos="62.36" departSpeed="0.00" departDelay="0.68" arrival="176.00" arrivalLane="43544138#7_1" arrivalPos="43.93" arrivalSpeed="12.71" duration="111.00" routeLength="1166.23" waitingTime="0.00" waitingCount="0" stopTime="0.00" timeLoss="23.88" rerouteNo="0" devices="tripinfo_veh134" vType="delivery" speedFactor="1.00" vaporized=""/>
    <tripinfo id="veh58" depart="28.00" departLane="E8_0" departPos="2283.12" departSpeed="0.00" departDelay="0.16" arrival="177.00" arrivalLane="-43546460#8_1" arrivalPos="96.42" arrivalSpeed="13.13" duration="149.00" routeLength="1690.97" waitingTime="8.00" waitingCount="1" stopTime="0.00" timeLoss="27.46" rerouteNo="0" devices="tripinfo_veh58" vType="passenger" speedFactor="1.02" vaporized=""/>
    <tripinfo id="veh59" depart="29.00" departLane="470207092#0_1" departPos="102.74" departSpeed="0.00" departDelay="0.68" arrival="177.00" arrivalLane="-48778473#1_1" arrivalPos="33.07" arrivalSpeed="12.92" duration="148.00" routeLength="1301.09" waitingTime="14.00" waitingCount="1" stopTime="0.00" timeLoss="35.11" rerouteNo="0" devices="tripinfo_veh59" vType="delivery" speedFactor="0.96" vaporized=""/>
    <tripinfo id="veh78" depart="38.00" departLane="258551281_1" departPos="23.47" departSpeed="0.00" departDelay="0.56" arrival="177.00" arrivalLane="984521611#0_0" arrivalPos="6.07" arrivalSpeed="4.96" duration="139.00" routeLength="1141.25" waitingTime="34.00" waitingCount="1" stopTime="0.00" timeLoss="56.23" rerouteNo="0" devices="tripinfo_veh78" vType="passenger" speedFactor="1.06" vaporized=""/>
    <tripinfo id="veh230" depart="114.00" departLane="-40236203#2_1" departPos="2.28" departSpeed="0.00" departDelay="3.60" arrival="178.00" arrivalLane="40236144#3_1" arrivalPos="85.78" arrivalSpeed="11.11" duration="64.00" routeLength="472.03" waitingTime="7.00" waitingCount="2" stopTime="0.00" timeLoss="23.93" rerouteNo="0" devices="tripinfo_veh230" vType="passenger" speedFactor="0.85" vaporized=""/>
    <tripinfo id="veh247" depart="119.00" departLane="43544202#0_1" departPos="102.49" departSpeed="0.00" departDelay="0.44" arrival="178.00" arrivalLane="43544138#3_1" arrivalPos="46.01" arrivalSpeed="12.31" duration="59.00" routeLength="571.98" waitingTime="0.00" waitingCount="0" stopTime="0.00" timeLoss="13.82" rerouteNo="0" devices="tripinfo_veh247" vType="passenger" speedFactor="0.98" vaporized=""/>
    <tripinfo id="veh31" depart="15.00" departLane="-250295381_1" departPos="22.49" departSpeed="0.00" departDelay="0.12" arrival="180.00" arrivalLane="43544624#3_1" arrivalPos="179.18" arrivalSpeed="14.79" duration="165.00" routeLength="2054.56" waitingTime="0.00" waitingCount="0" stopTime="0.00" timeLoss="25.38" rerouteNo="0" devices="tripinfo_veh31" vType="passenger" speedFactor="1.10" vaporized=""/>
    <tripinfo id="veh29" depart="14.00" departLane="48778485#0_1" departPos="17.39" departSpeed="0.00" departDelay="0.08" arrival="181.00" arrivalLane="40236220#2_1" arrivalPos="24.83" arrivalSpeed="13.45" duration="167.00" routeLength="1611.28" waitingTime="12.00" waitingCount="1" stopTime="0.00" timeLoss="46.33" rerouteNo="0" devices="tripinfo_veh29" vType="motorcycle" speedFactor="1.02" vaporized=""/>
    <tripinfo id="veh102" depart="49.00" departLane="-40299739#0_1" departPos="92.15" departSpeed="0.00" departDelay="0.04" arrival="181.00" arrivalLane="1017995181_1" arrivalPos="15.20" arrivalSpeed="12.95" duration="132.00" routeLength="1078.26" waitingTime="29.00" waitingCount="3" stopTime="0.00" timeLoss="54.29" rerouteNo="0" devices="tripinfo_veh102" vType="passenger" speedFactor="1.02" vaporized=""/>
    <tripinfo id="veh12" depart="6.00" departLane="-353939570#1_1" departPos="54.67" departSpeed="0.00" departDelay="0.24" arrival="182.00" arrivalLane="250295383#5_1" arrivalPos="51.09" arrivalSpeed="13.73" duration="176.00" routeLength="1644.71" waitingTime="32.00" waitingCount="1" stopTime="0.00" timeLoss="54.85" rerouteNo="0" devices="tripinfo_veh12" vType="emergency" speedFactor="1.00" vaporized=""/>
    <tripinfo id="veh200" depart="96.00" departLane="1135855898_0" departPos="45.78" departSpeed="0.00" departDelay="0.00" arrival="182.00" arrivalLane="40304754#5_1" arrivalPos="153.80" arrivalSpeed="11.11" duration="86.00" routeLength="830.35" waitingTime="0.00" waitingCount="0" stopTime="0.00" timeLoss="14.07" rerouteNo="0" devices="tripinfo_veh200" vType="passenger" speedFactor="0.89" vaporized=""/>
    <tripinfo id="veh143" depart="69.00" departLane="-1054663943_1" departPos="9.32" departSpeed="0.00" departDelay="0.36" arrival="186.00" arrivalLane="40266907#1_1" arrivalPos="33.57" arrivalSpeed="11.59" duration="117.00" routeLength="871.76" waitingTime="23.00" waitingCount="1" stopTime="0.00" timeLoss="42.51" rerouteNo="0" devices="tripinfo_veh143" vType="passenger" speedFactor="0.90" vaporized=""/>
    <tripinfo id="veh202" depart="97.00" departLane="-48778473#2_1" departPos="36.19" departSpeed="0.00" departDelay="0.04" arrival="186.00" arrivalLane="40236144#3_1" arrivalPos="85.78" arrivalSpeed="13.26" duration="89.00" routeLength="934.03" waitingTime="0.00" waitingCount="0" stopTime="0.00" timeLoss="17.93" rerouteNo="0" devices="tripinfo_veh202" vType="emergency" speedFactor="1.00" vaporized=""/>
    <tripinfo id="veh167" depart="81.00" departLane="-40330571#2_1" departPos="15.84" departSpeed="0.00" departDelay="0.84" arrival="189.00" arrivalLane="-354259933#3_1" arrivalPos="60.32" arrivalSpeed="10.98" duration="108.00" routeLength="893.38" waitingTime="5.00" waitingCount="1" stopTime="0.00" timeLoss="26.05" rerouteNo="0" devices="tripinfo_veh167" vType="passenger" speedFactor="0.83" vaporized=""/>
    <tripinfo id="veh205" depart="99.00" departLane="-1136289987_1" departPos="54.79" departSpeed="0.00" departDelay="0.60" arrival="189.00" arrivalLane="48778499#0_1" arrivalPos="44.27" arrivalSpeed="12.76" duration="90.00" routeLength="921.79" waitingTime="0.00" waitingCount="0" stopTime="0.00" timeLoss="17.25" rerouteNo="0" devices="tripinfo_veh205" vType="delivery" speedFactor="1.01" vaporized=""/>
    <personinfo id="ped30" depart="150.00" type="DEFAULT_PEDTYPE" speedFactor="0.93" duration="42.00" waitingTime="0.00" timeLoss="4.93" traveltime="42.00">
        <walk depart="150.00" departPos="0.00" arrival="192.00" arrivalPos="48.02" duration="42.00" routeLength="48.02" timeLoss="4.93" maxSpeed="1.30"/>
    </personinfo>
    <tripinfo id="veh93" depart="45.00" departLane="250295383#4_1" departPos="1.72" departSpeed="0.00" departDelay="0.36" arrival="195.00" arrivalLane="-E11.41_1" arrivalPos="28.99" arrivalSpeed="12.84" duration="150.00" routeLength="1065.49" waitingTime="54.00" waitingCount="2" stopTime="0.00" timeLoss="72.43" rerouteNo="0" devices="tripinfo_veh93" vType="delivery" speedFactor="1.01" vaporized=""/>
    <tripinfo id="veh262" depart="126.00" departLane="383582508#1_0" departPos="23.36" departSpeed="0.00" departDelay="0.24" arrival="195.00" arrivalLane="40330557#2_1" arrivalPos="100.16" arrivalSpeed="15.00" duration="69.00" routeLength="846.47" waitingTime="0.00" waitingCount="0" stopTime="0.00" timeLoss="12.84" rerouteNo="0" devices="tripinfo_veh262" vType="passenger" speedFactor="1.13" vaporized=""/>
    <tripinfo id="veh156" depart="75.00" departLane="-43544138#6_1" departPos="30.39" departSpeed="0.00" departDelay="0.12" arrival="199.00" arrivalLane="-289113877#0_1" arrivalPos="320.52" arrivalSpeed="15.24" duration="124.00" routeLength="1751.32" waitingTime="0.00" waitingCount="0" stopTime="0.00" timeLoss="15.18" rerouteNo="0" devices="tripinfo_veh156" vType="passenger" speedFactor="1.18" vaporized=""/>
    <tripinfo id="veh292" depart="141.00" departLane="43573547#0_1" departPos="108.17" departSpeed="0.00" departDelay="0.84" arrival="200.00" arrivalLane="-996984133_1" arrivalPos="75.36" arrivalSpeed="6.80" duration="59.00" routeLength="476.91" waitingTime="6.00" waitingCount="1" stopTime="0.00" timeLoss="18.23" rerouteNo="0" devices="tripinfo_veh292" vType="motorcycle" speedFactor="0.97" vaporized=""/>
    <tripinfo id="veh13" depart="7.00" departLane="143207979#4_1" departPos="13.98" departSpeed="0.00" departDelay="0.76" arrival="201.00" arrivalLane="222605085#0_1" arrivalPos="77.21" arrivalSpeed="13.22" duration="194.00" routeLength="1828.88" waitingTime="26.00" waitingCount="1" stopTime="0.00" timeLoss="59.45" rerouteNo="0" devices="tripinfo_veh13" vType="passenger" speedFactor="1.02" vaporized=""/>
    <tripinfo id="veh82" depart="40.00" departLane="-859732801#0_1" departPos="27.56" departSpeed="0.00" departDelay="0.64" arrival="201.00" arrivalLane="43544138#4_1" arrivalPos="45.15" arrivalSpeed="14.59" duration="161.00" routeLength="1693.51" waitingTime="0.00" waitingCount="0" stopTime="0.00" timeLoss="45.63" rerouteNo="0" devices="tripinfo_veh82" vType="passenger" speedFactor="1.10" vaporized=""/>
    <tripinfo id="veh46" depart="23.00" departLane="-48778501_1" departPos="132.30" departSpeed="0.00" departDelay="0.92" arrival="202.00" arrivalLane="-353939570#2_1" arrivalPos="3.23" arrivalSpeed="11.50" duration="179.00" routeLength="1296.80" waitingTime="57.00" waitingCount="1" stopTime="0.00" timeLoss="80.56" rerouteNo="0" devices="tripinfo_veh46" vType="motorcycle" speedFactor="1.00" vaporized=""/>
    <tripinfo id="veh278" depart="134.00" departLane="250295384_1" departPos="91.86" departSpeed="0.00" departDelay="0.56" arrival="202.00" arrivalLane="40236144#2_1" arrivalPos="51.61" arrivalSpeed="14.71" duration="68.00" routeLength="616.75" waitingTime="8.00" waitingCount="1" stopTime="0.00" timeLoss="25.27" rerouteNo="0" devices="tripinfo_veh278" vType="delivery" speedFactor="1.08" vaporized=""/>
    <tripinfo id="veh79" depart="38.00" departLane="-354252035_1" departPos="28.16" departSpeed="0.00" departDelay="0.08" arrival="203.00" arrivalLane="-43573547#0_1" arrivalPos="148.63" arrivalSpeed="11.28" duration="165.00" routeLength="1676.54" waitingTime="0.00" waitingCount="0" stopTime="0.00" timeLoss="22.00" rerouteNo="0" devices="tripinfo_veh79" vType="passenger" speedFactor="0.86" vaporized=""/>
    <tripinfo id="veh154" depart="74.00" departLane="-996486454#0_1" departPos="33.88" departSpeed="0.00" departDelay="0.08" arrival="204.00" arrivalLane="43544138#3_1" arrivalPos="46.01" arrivalSpeed="7.88" duration="130.00" routeLength="1239.97" waitingTime="3.00" waitingCount="1" stopTime="0.00" timeLoss="28.18" rerouteNo="0" devices="tripinfo_veh154" vType="passenger" speedFactor="0.91" vaporized=""/>
    <tripinfo id="veh112" depart="54.00" departLane="-996486454#0_1" departPos="59.31" departSpeed="0.00" departDelay="0.24" arrival="205.00" arrivalLane="-264868325_1" arrivalPos="96.14" arrivalSpeed="13.75" duration="151.00" routeLength="1615.44" waitingTime="0.00" waitingCount="0" stopTime="0.00" timeLoss="32.83" rerouteNo="0" devices="tripinfo_veh112" vType="passenger" speedFactor="1.04" vaporized=""/>
    <tripinfo id="veh377" depart="181.00" departLane="-250295383#5_1" departPos="32.28" departSpeed="0.00" departDelay="0.04" arrival="205.00" arrivalLane="48736641_1" arrivalPos="16.88" arrivalSpeed="11.57" duration="24.00" routeLength="216.65" waitingTime="0.00" waitingCount="0" stopTime="0.00" timeLoss="6.12" rerouteNo="0" devices="tripinfo_veh377" vType="passenger" speedFactor="0.98" vaporized=""/>
    <tripinfo id="veh254" depart="122.00" departLane="-43544001#15_1" departPos="1.19" departSpeed="0.00" departDelay="0.08" arrival="209.00" arrivalLane="-48778524#1_1" arrivalPos="19.99" arrivalSpeed="7.26" duration="87.00" routeLength="794.39" waitingTime="0.00" waitingCount="0" stopTime="0.00" timeLoss="24.81" rerouteNo="0" devices="tripinfo_veh254" vType="emergency" speedFactor="1.00" vaporized=""/>
    <tripinfo id="veh427" depart="205.00" departLane="222605084#3_1" departPos="1.23" departSpeed="0.00" departDelay="0.04" arrival="211.00" arrivalLane="1251292610_1" arrivalPos="10.57" arrivalSpeed="4.53" duration="6.00" routeLength="21.85" waitingTime="0.00" waitingCount="0" stopTime="0.00" timeLoss="1.41" rerouteNo="0" devices="tripinfo_veh427" vType="passenger" speedFactor="0.98" vaporized=""/>