<?xml version="1.0" encoding="UTF-8"?>

<!-- generated on 2025-06-15 21:55:58 by Eclipse SUMO sumo Version 1.22.0
<sumoConfiguration xmlns:xsi="http://www.w3.org/2001/XMLSchema-instance" xsi:noNamespaceSchemaLocation="http://sumo.dlr.de/xsd/sumoConfiguration.xsd">

    <input>
        <net-file value="E:/licenta/oras-mediu/2025-06-05-11-45-23\osm.net.xml"/>
        <route-files value="E:/licenta/oras-mediu/2025-06-05-11-45-23\full.rou.xml,E:/licenta/oras-mediu/2025-06-05-11-45-23\ ped.rou.xml,E:/licenta/oras-mediu/2025-06-05-11-45-23\ truck.rou.xml"/>
        <additional-files value="E:/licenta/oras-mediu/2025-06-05-11-45-23\osm.poly.xml,E:/licenta/oras-mediu/2025-06-05-11-45-23\ vtypes.xml"/>
    </input>

    <output>
        <summary-output value="E:/licenta/oras-mediu/2025-06-05-11-45-23\summary.xml"/>
        <tripinfo-output value="E:/licenta/oras-mediu/2025-06-05-11-45-23\tripinfo.xml"/>
    </output>

    <processing>
        <ignore-route-errors value="true"/>
        <tls.actuated.jam-threshold value="30"/>
    </processing>

    <routing>
        <device.rerouting.adaptation-steps value="18"/>
        <device.rerouting.adaptation-interval value="10"/>
    </routing>

    <report>
        <verbose value="true"/>
        <duration-log.statistics value="true"/>
        <no-step-log value="true"/>
    </report>

    <traci_server>
        <remote-port value="65039"/>
    </traci_server>

    <gui_only>
        <gui-settings-file value="E:/licenta/oras-mediu/2025-06-05-11-45-23\osm.view.xml"/>
    </gui_only>

</sumoConfiguration>
-->

<tripinfos xmlns:xsi="http://www.w3.org/2001/XMLSchema-instance" xsi:noNamespaceSchemaLocation="http://sumo.dlr.de/xsd/tripinfo_file.xsd">
    <tripinfo id="veh64" depart="27.00" departLane="48778464#3_1" departPos="0.00" departSpeed="0.00" departDelay="0.76" arrival="45.00" arrivalLane="48778464#2_1" arrivalPos="24.43" arrivalSpeed="12.40" duration="18.00" routeLength="98.36" waitingTime="0.00" waitingCount="0" stopTime="0.00" timeLoss="4.76" rerouteNo="0" devices="tripinfo_veh64" vType="passenger" speedFactor="1.09" vaporized=""/>
    <tripinfo id="veh34" depart="14.00" departLane="-1250915724#0_1" departPos="6.10" departSpeed="0.00" departDelay="0.06" arrival="69.00" arrivalLane="-992542691_0" arrivalPos="22.19" arrivalSpeed="5.43" duration="55.00" routeLength="306.97" waitingTime="0.00" waitingCount="0" stopTime="0.00" timeLoss="11.29" rerouteNo="0" devices="tripinfo_veh34" vType="passenger" speedFactor="1.04" vaporized=""/>
    <tripinfo id="veh83" depart="35.00" departLane="1136301815#1_1" departPos="11.68" departSpeed="0.00" departDelay="0.97" arrival="75.00" arrivalLane="647762524_1" arrivalPos="48.75" arrivalSpeed="14.64" duration="40.00" routeLength="332.35" waitingTime="0.00" waitingCount="0" stopTime="0.00" timeLoss="13.49" rerouteNo="0" devices="tripinfo_veh83" vType="passenger" speedFactor="1.08" vaporized=""/>
    <tripinfo id="veh60" depart="25.00" departLane="-43544588#1_1" departPos="5.88" departSpeed="0.00" departDelay="0.40" arrival="78.00" arrivalLane="48778527_1" arrivalPos="56.14" arrivalSpeed="13.56" duration="53.00" routeLength="452.77" waitingTime="0.00" waitingCount="0" stopTime="0.00" timeLoss="17.41" rerouteNo="0" devices="tripinfo_veh60" vType="passenger" speedFactor="1.06" vaporized=""/>
    <tripinfo id="veh70" depart="29.00" departLane="48778504_1" departPos="75.39" departSpeed="0.00" departDelay="0.30" arrival="97.00" arrivalLane="222609002#2_1" arrivalPos="15.40" arrivalSpeed="10.97" duration="68.00" routeLength="689.20" waitingTime="0.00" waitingCount="0" stopTime="0.00" timeLoss="14.18" rerouteNo="0" devices="tripinfo_veh70" vType="passenger" speedFactor="1.01" vaporized=""/>
    <tripinfo id="veh122" depart="51.00" departLane="-984508803_0" departPos="6.19" departSpeed="0.00" departDelay="0.98" arrival="100.00" arrivalLane="1136283379#1_1" arrivalPos="30.99" arrivalSpeed="6.39" duration="49.00" routeLength="408.32" waitingTime="0.00" waitingCount="0" stopTime="0.00" timeLoss="9.63" rerouteNo="0" devices="tripinfo_veh122" vType="passenger" speedFactor="0.92" vaporized=""/>
    <tripinfo id="veh75" depart="31.00" departLane="-43546379_1" departPos="134.83" departSpeed="0.00" departDelay="0.25" arrival="102.00" arrivalLane="48778456#1_1" arrivalPos="114.05" arrivalSpeed="11.74" duration="71.00" routeLength="570.29" waitingTime="0.00" waitingCount="0" stopTime="0.00" timeLoss="17.46" rerouteNo="0" devices="tripinfo_veh75" vType="passenger" speedFactor="0.86" vaporized=""/>
    <tripinfo id="veh50" depart="21.00" departLane="945794108_1" departPos="10.29" departSpeed="0.00" departDelay="0.50" arrival="104.00" arrivalLane="-43544184#3_1" arrivalPos="74.17" arrivalSpeed="15.00" duration="83.00" routeLength="878.03" waitingTime="0.00" waitingCount="0" stopTime="0.00" timeLoss="23.90" rerouteNo="0" devices="tripinfo_veh50" vType="passenger" speedFactor="1.12" vaporized=""/>
    <tripinfo id="veh52" depart="22.00" departLane="-48797768_1" departPos="27.87" departSpeed="0.00" departDelay="0.68" arrival="111.00" arrivalLane="-40299739#2_1" arrivalPos="43.24" arrivalSpeed="13.17" duration="89.00" routeLength="928.49" waitingTime="1.00" waitingCount="1" stopTime="0.00" timeLoss="19.73" rerouteNo="0" devices="tripinfo_veh52" vType="delivery" speedFactor="0.99" vaporized=""/>
    <tripinfo id="veh115" depart="48.00" departLane="-48736638#2_1" departPos="23.89" departSpeed="0.00" departDelay="0.85" arrival="119.00" arrivalLane="492965073#8_1" arrivalPos="91.29" arrivalSpeed="14.28" duration="71.00" routeLength="783.24" waitingTime="3.00" waitingCount="1" stopTime="0.00" timeLoss="15.70" rerouteNo="0" devices="tripinfo_veh115" vType="delivery" speedFactor="1.06" vaporized=""/>
    <tripinfo id="veh24" depart="10.00" departLane="354259927_1" departPos="208.26" departSpeed="0.00" departDelay="0.16" arrival="126.00" arrivalLane="-33909936#1_1" arrivalPos="133.03" arrivalSpeed="13.70" duration="116.00" routeLength="1342.36" waitingTime="0.00" waitingCount="0" stopTime="0.00" timeLoss="21.76" rerouteNo="0" devices="tripinfo_veh24" vType="passenger" speedFactor="0.99" vaporized=""/>
    <tripinfo id="veh96" depart="40.00" departLane="43544202#2_1" departPos="112.14" departSpeed="0.00" departDelay="0.64" arrival="127.00" arrivalLane="222605089#0_1" arrivalPos="43.20" arrivalSpeed="12.94" duration="87.00" routeLength="824.14" waitingTime="8.00" waitingCount="1" stopTime="0.00" timeLoss="23.71" rerouteNo="0" devices="tripinfo_veh96" vType="motorcycle" speedFactor="0.98" vaporized=""/>
    <tripinfo id="veh190" depart="78.00" departLane="33909936#1_1" departPos="122.03" departSpeed="0.00" departDelay="0.10" arrival="127.00" arrivalLane="48778486_1" arrivalPos="28.07" arrivalSpeed="12.22" duration="49.00" routeLength="446.22" waitingTime="0.00" waitingCount="0" stopTime="0.00" timeLoss="10.44" rerouteNo="0" devices="tripinfo_veh190" vType="passenger" speedFactor="0.89" vaporized=""/>
    <personinfo id="ped1" depart="5.00" type="DEFAULT_PEDTYPE" speedFactor="1.20" duration="123.00" waitingTime="0.00" timeLoss="16.96" traveltime="123.00">
        <walk depart="5.00" departPos="0.00" arrival="128.00" arrivalPos="21.34" duration="123.00" routeLength="176.80" timeLoss="16.96" maxSpeed="1.67"/>
    </personinfo>
    <tripinfo id="veh13" depart="6.00" departLane="1136283379#0_1" departPos="88.39" departSpeed="0.00" departDelay="0.67" arrival="130.00" arrivalLane="48778449#1_1" arrivalPos="70.68" arrivalSpeed="13.45" duration="124.00" routeLength="1252.99" waitingTime="0.00" waitingCount="0" stopTime="0.00" timeLoss="24.86" rerouteNo="0" devices="tripinfo_veh13" vType="emergency" speedFactor="1.00" vaporized=""/>
    <tripinfo id="veh169" depart="70.00" departLane="-43544179#10_1" departPos="11.48" departSpeed="0.00" departDelay="0.71" arrival="132.00" arrivalLane="-143207979#1_1" arrivalPos="43.59" arrivalSpeed="13.38" duration="62.00" routeLength="698.46" waitingTime="0.00" waitingCount="0" stopTime="0.00" timeLoss="10.94" rerouteNo="0" devices="tripinfo_veh169" vType="passenger" speedFactor="1.04" vaporized=""/>
    <tripinfo id="veh91" depart="38.00" departLane="43544179#8_1" departPos="12.26" departSpeed="0.00" departDelay="0.69" arrival="134.00" arrivalLane="-43544001#14_1" arrivalPos="60.31" arrivalSpeed="14.07" duration="96.00" routeLength="979.88" waitingTime="9.00" waitingCount="1" stopTime="0.00" timeLoss="29.95" rerouteNo="0" devices="tripinfo_veh91" vType="passenger" speedFactor="1.10" vaporized=""/>
    <tripinfo id="veh188" depart="78.00" departLane="-40265775#1_1" departPos="64.63" departSpeed="0.00" departDelay="0.92" arrival="134.00" arrivalLane="-250295380#1_1" arrivalPos="92.88" arrivalSpeed="15.55" duration="56.00" routeLength="668.05" waitingTime="0.00" waitingCount="0" stopTime="0.00" timeLoss="11.33" rerouteNo="0" devices="tripinfo_veh188" vType="motorcycle" speedFactor="1.14" vaporized=""/>
    <tripinfo id="veh147" depart="61.00" departLane="-671642318#1_1" departPos="5.97" departSpeed="0.00" departDelay="0.73" arrival="135.00" arrivalLane="994065254_0" arrivalPos="52.51" arrivalSpeed="4.04" duration="74.00" routeLength="665.07" waitingTime="0.00" waitingCount="0" stopTime="0.00" timeLoss="10.99" rerouteNo="0" devices="tripinfo_veh147" vType="passenger" speedFactor="0.89" vaporized=""/>
    <tripinfo id="veh210" depart="87.00" departLane="-492965073#9_1" departPos="8.85" departSpeed="0.00" departDelay="0.90" arrival="138.00" arrivalLane="-48736639#1_1" arrivalPos="23.90" arrivalSpeed="12.87" duration="51.00" routeLength="448.82" waitingTime="0.00" waitingCount="0" stopTime="0.00" timeLoss="13.71" rerouteNo="0" devices="tripinfo_veh210" vType="passenger" speedFactor="0.96" vaporized=""/>
    <tripinfo id="veh221" depart="91.00" departLane="-48736612#5_1" departPos="0.42" departSpeed="0.00" departDelay="0.39" arrival="139.00" arrivalLane="48736621#0_1" arrivalPos="15.22" arrivalSpeed="9.45" duration="48.00" routeLength="432.60" waitingTime="1.00" waitingCount="1" stopTime="0.00" timeLoss="10.57" rerouteNo="0" devices="tripinfo_veh221" vType="passenger" speedFactor="0.87" vaporized=""/>
    <tripinfo id="veh1" depart="1.00" departLane="-945794109_1" departPos="15.55" departSpeed="0.00" departDelay="0.59" arrival="141.00" arrivalLane="222605089#0_1" arrivalPos="43.20" arrivalSpeed="10.68" duration="140.00" routeLength="1402.85" waitingTime="14.00" waitingCount="1" stopTime="0.00" timeLoss="33.94" rerouteNo="0" devices="tripinfo_veh1" vType="motorcycle" speedFactor="0.98" vaporized=""/>
    <tripinfo id="veh3" depart="2.00" departLane="492965073#9_2" departPos="45.09" departSpeed="0.00" departDelay="0.77" arrival="142.00" arrivalLane="-48736620#6_1" arrivalPos="3.94" arrivalSpeed="13.80" duration="140.00" routeLength="1625.03" waitingTime="0.00" waitingCount="0" stopTime="0.00" timeLoss="21.05" rerouteNo="0" devices="tripinfo_veh3" vType="passenger" speedFactor="1.01" vaporized=""/>
    <tripinfo id="veh100" depart="41.00" departLane="48736632#0_1" departPos="42.93" departSpeed="0.00" departDelay="0.00" arrival="143.00" arrivalLane="48736612#2_1" arrivalPos="52.68" arrivalSpeed="11.34" duration="102.00" routeLength="916.23" waitingTime="1.00" waitingCount="1" stopTime="0.00" timeLoss="22.38" rerouteNo="0" devices="tripinfo_veh100" vType="passenger" speedFactor="0.89" vaporized=""/>
    <tripinfo id="veh157" depart="65.00" departLane="40236259_1" departPos="131.22" departSpeed="0.00" departDelay="0.63" arrival="143.00" arrivalLane="48778493#2_1" arrivalPos="44.65" arrivalSpeed="13.98" duration="78.00" routeLength="598.34" waitingTime="12.00" waitingCount="1" stopTime="0.00" timeLoss="33.30" rerouteNo="0" devices="tripinfo_veh157" vType="passenger" speedFactor="1.04" vaporized=""/>
    <tripinfo id="veh173" depart="71.00" departLane="-43546064#2_1" departPos="36.86" departSpeed="0.00" departDelay="0.07" arrival="143.00" arrivalLane="-647226815#0_1" arrivalPos="44.37" arrivalSpeed="13.13" duration="72.00" routeLength="651.02" waitingTime="0.00" waitingCount="0" stopTime="0.00" timeLoss="19.08" rerouteNo="0" devices="tripinfo_veh173" vType="passenger" speedFactor="0.96" vaporized=""/>
    <tripinfo id="veh132" depart="55.00" departLane="-1250915721#0_1" departPos="2.06" departSpeed="0.00" departDelay="0.88" arrival="151.00" arrivalLane="-40330557#3_1" arrivalPos="31.45" arrivalSpeed="15.51" duration="96.00" routeLength="704.78" waitingTime="14.00" waitingCount="3" stopTime="0.00" timeLoss="38.71" rerouteNo="0" devices="tripinfo_veh132" vType="passenger" speedFactor="1.13" vaporized=""/>
    <tripinfo id="veh273" depart="112.00" departLane="48736623_1" departPos="2.31" departSpeed="0.00" departDelay="0.07" arrival="151.00" arrivalLane="-48736610#1_1" arrivalPos="1.24" arrivalSpeed="13.61" duration="39.00" routeLength="385.45" waitingTime="0.00" waitingCount="0" stopTime="0.00" timeLoss="9.26" rerouteNo="0" devices="tripinfo_veh273" vType="passenger" speedFactor="1.00" vaporized=""/>
    <tripinfo id="veh282" depart="116.00" departLane="-43544197#8_1" departPos="131.57" departSpeed="0.00" departDelay="0.38" arrival="152.00" arrivalLane="-43544138#2_1" arrivalPos="0.25" arrivalSpeed="4.82" duration="36.00" routeLength="307.51" waitingTime="0.00" waitingCount="0" stopTime="0.00" timeLoss="6.63" rerouteNo="0" devices="tripinfo_veh282" vType="passenger" speedFactor="0.82" vaporized=""/>
    <tripinfo id="veh19" depart="8.00" departLane="-40334244#0_1" departPos="35.16" departSpeed="0.00" departDelay="0.21" arrival="153.00" arrivalLane="40314876_1" arrivalPos="38.09" arrivalSpeed="13.18" duration="145.00" routeLength="1389.63" waitingTime="0.00" waitingCount="0" stopTime="0.00" timeLoss="43.44" rerouteNo="0" devices="tripinfo_veh19" vType="passenger" speedFactor="1.03" vaporized=""/>
    <tripinfo id="veh235" depart="97.00" departLane="-40330575#4_1" departPos="11.94" departSpeed="0.00" departDelay="0.65" arrival="153.00" arrivalLane="48778485#1_1" arrivalPos="18.27" arrivalSpeed="13.74" duration="56.00" routeLength="537.73" waitingTime="0.00" waitingCount="0" stopTime="0.00" timeLoss="16.83" rerouteNo="0" devices="tripinfo_veh235" vType="passenger" speedFactor="1.10" vaporized=""/>
    <tripinfo id="veh258" depart="106.00" departLane="40236220#0_1" departPos="7.55" departSpeed="0.00" departDelay="0.22" arrival="155.00" arrivalLane="273836978#0_1" arrivalPos="13.78" arrivalSpeed="11.04" duration="49.00" routeLength="425.83" waitingTime="0.00" waitingCount="0" stopTime="0.00" timeLoss="10.92" rerouteNo="0" devices="tripinfo_veh258" vType="passenger" speedFactor="0.87" vaporized=""/>
    <tripinfo id="veh57" depart="24.00" departLane="E42_1" departPos="85.36" departSpeed="0.00" departDelay="0.63" arrival="158.00" arrivalLane="-40330583#0_0" arrivalPos="91.11" arrivalSpeed="24.36" duration="134.00" routeLength="1889.36" waitingTime="0.00" waitingCount="0" stopTime="0.00" timeLoss="11.20" rerouteNo="0" devices="tripinfo_veh57" vType="passenger" speedFactor="1.02" vaporized=""/>
    <tripinfo id="veh84" depart="35.00" departLane="40236220#1_1" departPos="3.30" departSpeed="0.00" departDelay="0.56" arrival="159.00" arrivalLane="-353939570#6_1" arrivalPos="0.20" arrivalSpeed="13.59" duration="124.00" routeLength="1164.49" waitingTime="13.00" waitingCount="1" stopTime="0.00" timeLoss="39.29" rerouteNo="0" devices="tripinfo_veh84" vType="passenger" speedFactor="1.03" vaporized=""/>
    <personinfo id="ped17" depart="85.00" type="DEFAULT_PEDTYPE" speedFactor="1.07" duration="75.00" waitingTime="0.00" timeLoss="8.21" traveltime="75.00">
        <walk depart="85.00" departPos="0.00" arrival="160.00" arrivalPos="43.38" duration="75.00" routeLength="99.43" timeLoss="8.21" maxSpeed="1.49"/>
    </personinfo>
    <tripinfo id="veh192" depart="79.00" departLane="383582506_0" departPos="28.62" departSpeed="0.00" departDelay="0.28" arrival="161.00" arrivalLane="647998062_1" arrivalPos="77.82" arrivalSpeed="15.05" duration="82.00" routeLength="705.90" waitingTime="3.00" waitingCount="1" stopTime="0.00" timeLoss="27.49" rerouteNo="0" devices="tripinfo_veh192" vType="passenger" speedFactor="1.10" vaporized=""/>
    <tripinfo id="veh208" depart="86.00" departLane="40345956#1_1" departPos="3.47" departSpeed="0.00" departDelay="0.72" arrival="161.00" arrivalLane="33909936#1_1" arrivalPos="134.25" arrivalSpeed="15.60" duration="75.00" routeLength="965.89" waitingTime="0.00" waitingCount="0" stopTime="0.00" timeLoss="11.63" rerouteNo="0" devices="tripinfo_veh208" vType="passenger" speedFactor="1.13" vaporized=""/>
    <tripinfo id="veh27" depart="12.00" departLane="-258551317_1" departPos="14.51" departSpeed="0.00" departDelay="0.93" arrival="164.00" arrivalLane="-383582519_0" arrivalPos="74.79" arrivalSpeed="3.04" duration="152.00" routeLength="1195.51" waitingTime="29.00" waitingCount="1" stopTime="0.00" timeLoss="55.67" rerouteNo="0" devices="tripinfo_veh27" vType="motorcycle" speedFactor="1.02" vaporized=""/>
    <tripinfo id="veh241" depart="99.00" departLane="143207979#2_1" departPos="38.47" departSpeed="0.00" departDelay="0.19" arrival="167.00" arrivalLane="43547017#1_1" arrivalPos="26.92" arrivalSpeed="11.81" duration="68.00" routeLength="702.85" waitingTime="0.00" waitingCount="0" stopTime="0.00" timeLoss="12.56" rerouteNo="0" devices="tripinfo_veh241" vType="passenger" speedFactor="0.97" vaporized=""/>
    <tripinfo id="veh116" depart="48.00" departLane="48736618_1" departPos="15.01" departSpeed="0.00" departDelay="0.44" arrival="168.00" arrivalLane="-48736620#2_2" arrivalPos="95.25" arrivalSpeed="15.56" duration="120.00" routeLength="1176.40" waitingTime="3.00" waitingCount="1" stopTime="0.00" timeLoss="47.37" rerouteNo="0" devices="tripinfo_veh116" vType="passenger" speedFactor="1.21" vaporized=""/>
    <tripinfo id="veh165" depart="68.00" departLane="647998060#0_1" departPos="32.93" departSpeed="0.00" departDelay="0.35" arrival="168.00" arrivalLane="48778511_1" arrivalPos="75.86" arrivalSpeed="10.86" duration="100.00" routeLength="806.24" waitingTime="1.00" waitingCount="1" stopTime="0.00" timeLoss="21.05" rerouteNo="0" devices="tripinfo_veh165" vType="passenger" speedFactor="0.80" vaporized=""/>
    <tripinfo id="veh45" depart="19.00" departLane="-43573547#1_1" departPos="16.09" departSpeed="0.00" departDelay="0.55" arrival="169.00" arrivalLane="1136289992_1" arrivalPos="17.60" arrivalSpeed="5.64" duration="150.00" routeLength="764.93" waitingTime="7.00" waitingCount="2" stopTime="0.00" timeLoss="24.16" rerouteNo="0" devices="tripinfo_veh45" vType="bicycle" speedFactor="1.10" vaporized=""/>
    <tripinfo id="veh49" depart="21.00" departLane="48778520_1" departPos="58.82" departSpeed="0.00" departDelay="0.91" arrival="169.00" arrivalLane="40265777#1_1" arrivalPos="65.39" arrivalSpeed="13.79" duration="148.00" routeLength="1796.99" waitingTime="0.00" waitingCount="0" stopTime="0.00" timeLoss="15.85" rerouteNo="0" devices="tripinfo_veh49" vType="passenger" speedFactor="1.00" vaporized=""/>
    <tripinfo id="veh123" depart="51.00" departLane="43546506#1_1" departPos="88.21" departSpeed="0.00" departDelay="0.57" arrival="169.00" arrivalLane="43546648#2_1" arrivalPos="79.89" arrivalSpeed="15.47" duration="118.00" routeLength="1471.63" waitingTime="1.00" waitingCount="1" stopTime="0.00" timeLoss="24.81" rerouteNo="0" devices="tripinfo_veh123" vType="passenger" speedFactor="1.18" vaporized=""/>
    <tripinfo id="veh207" depart="85.00" departLane="40330557#3_1" departPos="11.40" departSpeed="0.00" departDelay="0.13" arrival="170.00" arrivalLane="353939570#8_2" arrivalPos="81.94" arrivalSpeed="14.34" duration="85.00" routeLength="796.88" waitingTime="11.00" waitingCount="1" stopTime="0.00" timeLoss="30.87" rerouteNo="0" devices="tripinfo_veh207" vType="passenger" speedFactor="1.12" vaporized=""/>
    <tripinfo id="veh94" depart="39.00" departLane="-43547579#3_1" departPos="40.81" departSpeed="0.00" departDelay="0.46" arrival="172.00" arrivalLane="-48736612#6_1" arrivalPos="0.20" arrivalSpeed="15.52" duration="133.00" routeLength="1555.09" waitingTime="10.00" waitingCount="1" stopTime="0.00" timeLoss="32.58" rerouteNo="0" devices="tripinfo_veh94" vType="passenger" speedFactor="1.13" vaporized=""/>
    <tripinfo id="veh141" depart="58.00" departLane="-48778517#1_1" departPos="4.37" departSpeed="0.00" departDelay="0.19" arrival="172.00" arrivalLane="-43544624#0_1" arrivalPos="295.18" arrivalSpeed="14.43" duration="114.00" routeLength="1230.36" waitingTime="2.00" waitingCount="1" stopTime="0.00" timeLoss="24.90" rerouteNo="0" devices="tripinfo_veh141" vType="motorcycle" speedFactor="1.08" vaporized=""/>
    <tripinfo id="veh227" depart="94.00" departLane="-43547017#1_1" departPos="19.07" departSpeed="0.00" departDelay="0.93" arrival="175.00" arrivalLane="43544138#0_1" arrivalPos="42.14" arrivalSpeed="13.39" duration="81.00" routeLength="720.33" waitingTime="2.00" waitingCount="1" stopTime="0.00" timeLoss="23.67" rerouteNo="0" devices="tripinfo_veh227" vType="passenger" speedFactor="0.98" vaporized=""/>
    <tripinfo id="veh18" depart="8.00" departLane="-40236220#2_1" departPos="22.04" departSpeed="0.00" departDelay="0.62" arrival="184.00" arrivalLane="647262856_1" arrivalPos="411.78" arrivalSpeed="11.25" duration="176.00" routeLength="1832.39" waitingTime="0.00" waitingCount="0" stopTime="0.00" timeLoss="19.37" rerouteNo="0" devices="tripinfo_veh18" vType="passenger" speedFactor="0.87" vaporized=""/>
    <tripinfo id="veh47" depart="20.00" departLane="-48736642_1" departPos="39.01" departSpeed="0.00" departDelay="0.73" arrival="185.00" arrivalLane="48736612#2_1" arrivalPos="52.68" arrivalSpeed="12.48" duration="165.00" routeLength="1567.63" waitingTime="18.00" waitingCount="2" stopTime="0.00" timeLoss="46.65" rerouteNo="0" devices="tripinfo_veh47" vType="delivery" speedFactor="0.98" vaporized=""/>
    <tripinfo id="veh35" depart="15.00" departLane="48778480#4_1" departPos="2.71" departSpeed="0.00" departDelay="0.65" arrival="186.00" arrivalLane="48778503#0_1" arrivalPos="42.51" arrivalSpeed="12.90" duration="171.00" routeLength="1747.99" waitingTime="2.00" waitingCount="1" stopTime="0.00" timeLoss="41.14" rerouteNo="0" devices="tripinfo_veh35" vType="emergency" speedFactor="1.00" vaporized=""/>
    <tripinfo id="veh167" depart="69.00" departLane="-48778476_1" departPos="63.37" departSpeed="0.00" departDelay="0.53" arrival="186.00" arrivalLane="1136283361_0" arrivalPos="47.88" arrivalSpeed="5.15" duration="117.00" routeLength="878.58" waitingTime="11.00" waitingCount="2" stopTime="0.00" timeLoss="40.57" rerouteNo="0" devices="tripinfo_veh167" vType="passenger" speedFactor="0.98" vaporized=""/>
    <tripinfo id="veh20" depart="9.00" departLane="-48778510#0_1" departPos="0.23" departSpeed="0.00" departDelay="0.80" arrival="187.00" arrivalLane="-48736613#3_1" arrivalPos="41.47" arrivalSpeed="14.95" duration="178.00" routeLength="1885.39" waitingTime="30.00" waitingCount="1" stopTime="0.00" timeLoss="55.89" rerouteNo="0" devices="tripinfo_veh20" vType="passenger" speedFactor="1.13" vaporized=""/>
    <tripinfo id="veh103" depart="43.00" departLane="-48736646#1_1" departPos="66.88" departSpeed="0.00" departDelay="0.77" arrival="188.00" arrivalLane="984508804_0" arrivalPos="26.89" arrivalSpeed="5.12" duration="145.00" routeLength="1385.61" waitingTime="27.00" waitingCount="1" stopTime="0.00" timeLoss="49.64" rerouteNo="0" devices="tripinfo_veh103" vType="passenger" speedFactor="1.12" vaporized=""/>
    <tripinfo id="veh11" depart="5.00" departLane="48778475#1_1" departPos="11.75" departSpeed="0.00" departDelay="0.49" arrival="190.00" arrivalLane="43544184#3_1" arrivalPos="83.07" arrivalSpeed="14.07" duration="185.00" routeLength="2117.25" waitingTime="0.00" waitingCount="0" stopTime="0.00" timeLoss="35.51" rerouteNo="0" devices="tripinfo_veh11" vType="passenger" speedFactor="1.04" vaporized=""/>
    <tripinfo id="veh78" depart="32.00" departLane="1136301818_1" departPos="18.45" departSpeed="0.00" departDelay="0.02" arrival="190.00" arrivalLane="-48736666#0_1" arrivalPos="53.08" arrivalSpeed="15.11" duration="158.00" routeLength="1301.78" waitingTime="38.00" waitingCount="2" stopTime="0.00" timeLoss="67.85" rerouteNo="0" devices="tripinfo_veh78" vType="passenger" speedFactor="1.10" vaporized=""/>
    <tripinfo id="veh187" depart="77.00" departLane="48778516_1" departPos="114.91" departSpeed="0.00" departDelay="0.33" arrival="190.00" arrivalLane="-43544624#1_1" arrivalPos="93.66" arrivalSpeed="14.70" duration="113.00" routeLength="1117.33" waitingTime="9.00" waitingCount="1" stopTime="0.00" timeLoss="35.14" rerouteNo="0" devices="tripinfo_veh187" vType="delivery" speedFactor="1.08" vaporized=""/>
    <tripinfo id="veh293" depart="121.00" departLane="647226814#0_1" departPos="0.42" departSpeed="0.00" departDelay="0.87" arrival="190.00" arrivalLane="143207979#2_1" arrivalPos="38.81" arrivalSpeed="13.34" duration="69.00" routeLength="579.40" waitingTime="0.00" waitingCount="0" stopTime="0.00" timeLoss="20.90" rerouteNo="0" devices="tripinfo_veh293" vType="delivery" speedFactor="0.97" vaporized=""/>
    <tripinfo id="veh25" depart="11.00" departLane="383582497_0" departPos="12.76" departSpeed="0.00" departDelay="0.75" arrival="192.00" arrivalLane="43544179#4_1" arrivalPos="42.09" arrivalSpeed="13.28" duration="181.00" routeLength="1973.33" waitingTime="0.00" waitingCount="0" stopTime="0.00" timeLoss="25.96" rerouteNo="0" devices="tripinfo_veh25" vType="passenger" speedFactor="0.97" vaporized=""/>
    <tripinfo id="veh80" depart="33.00" departLane="33909936#3_1" departPos="2.09" departSpeed="0.00" departDelay="0.20" arrival="193.00" arrivalLane="354252043_1" arrivalPos="59.61" arrivalSpeed="13.47" duration="160.00" routeLength="1780.60" waitingTime="0.00" waitingCount="0" stopTime="0.00" timeLoss="24.97" rerouteNo="0" devices="tripinfo_veh80" vType="delivery" speedFactor="0.98" vaporized=""/>
    <tripinfo id="veh43" depart="18.00" departLane="-43546449#1_1" departPos="30.07" departSpeed="0.00" departDelay="0.37" arrival="194.00" arrivalLane="-251916699#0_1" arrivalPos="41.20" arrivalSpeed="14.14" duration="176.00" routeLength="1533.36" waitingTime="39.00" waitingCount="1" stopTime="0.00" timeLoss="68.66" rerouteNo="0" devices="tripinfo_veh43" vType="passenger" speedFactor="1.05" vaporized=""/>
    <tripinfo id="veh74" depart="31.00" departLane="-40236259_1" departPos="21.58" departSpeed="0.00" departDelay="0.66" arrival="194.00" arrivalLane="-383582507_0" arrivalPos="62.46" arrivalSpeed="2.33" duration="163.00" routeLength="1633.51" waitingTime="0.00" waitingCount="0" stopTime="0.00" timeLoss="24.93" rerouteNo="0" devices="tripinfo_veh74" vType="passenger" speedFactor="1.06" vaporized=""/>
    <tripinfo id="veh162" depart="67.00" departLane="48778464#1_1" departPos="3.59" departSpeed="0.00" departDelay="0.58" arrival="194.00" arrivalLane="-859732802#0_0" arrivalPos="5.60" arrivalSpeed="5.43" duration="127.00" routeLength="1188.09" waitingTime="0.00" waitingCount="0" stopTime="0.00" timeLoss="35.41" rerouteNo="0" devices="tripinfo_veh162" vType="passenger" speedFactor="1.07" vaporized=""/>
    <tripinfo id="veh223" depart="92.00" departLane="383582500_0" departPos="89.99" departSpeed="0.00" departDelay="0.57" arrival="194.00" arrivalLane="671642315_1" arrivalPos="17.80" arrivalSpeed="9.55" duration="102.00" routeLength="717.56" waitingTime="2.00" waitingCount="1" stopTime="0.00" timeLoss="20.66" rerouteNo="0" devices="tripinfo_veh223" vType="passenger" speedFactor="0.97" vaporized=""/>
    <tripinfo id="veh156" depart="64.00" departLane="-647621857_0" departPos="35.82" departSpeed="0.00" departDelay="0.04" arrival="195.00" arrivalLane="-174817602_0" arrivalPos="136.56" arrivalSpeed="4.27" duration="131.00" routeLength="1165.09" waitingTime="3.00" waitingCount="1" stopTime="0.00" timeLoss="21.75" rerouteNo="0" devices="tripinfo_veh156" vType="delivery" speedFactor="0.94" vaporized=""/>
    <tripinfo id="veh71" depart="30.00" departLane="-43544179#5_1" departPos="8.77" departSpeed="0.00" departDelay="0.89" arrival="196.00" arrivalLane="48778516_1" arrivalPos="193.31" arrivalSpeed="10.36" duration="166.00" routeLength="1688.29" waitingTime="0.00" waitingCount="0" stopTime="0.00" timeLoss="29.81" rerouteNo="0" devices="tripinfo_veh71" vType="motorcycle" speedFactor="0.94" vaporized=""/>
    <tripinfo id="veh108" depart="45.00" departLane="-647677163_1" departPos="20.65" departSpeed="0.00" departDelay="0.72" arrival="197.00" arrivalLane="-671606411_1" arrivalPos="183.61" arrivalSpeed="13.74" duration="152.00" routeLength="1367.66" waitingTime="32.00" waitingCount="1" stopTime="0.00" timeLoss="52.55" rerouteNo="0" devices="tripinfo_veh108" vType="motorcycle" speedFactor="1.04" vaporized=""/>
    <personinfo id="ped0" depart="0.00" type="DEFAULT_PEDTYPE" speedFactor="0.84" duration="201.00" waitingTime="0.00" timeLoss="21.55" traveltime="201.00">
        <walk depart="0.00" departPos="0.00" arrival="201.00" arrivalPos="26.45" duration="201.00" routeLength="209.16" timeLoss="21.55" maxSpeed="1.17"/>
    </personinfo>
    <tripinfo id="veh127" depart="53.00" departLane="43573547#8_1" departPos="37.21" departSpeed="0.00" departDelay="0.93" arrival="204.00" arrivalLane="48778485#1_1" arrivalPos="18.27" arrivalSpeed="10.95" duration="151.00" routeLength="1222.91" waitingTime="15.00" waitingCount="2" stopTime="0.00" timeLoss="44.71" rerouteNo="0" devices="tripinfo_veh127" vType="passenger" speedFactor="0.88" vaporized=""/>
    <tripinfo id="veh196" depart="81.00" departLane="1205541344_0" departPos="48.04" departSpeed="0.00" departDelay="0.64" arrival="204.00" arrivalLane="43546053#2_1" arrivalPos="188.18" arrivalSpeed="14.75" duration="123.00" routeLength="1528.19" waitingTime="0.00" waitingCount="0" stopTime="0.00" timeLoss="14.06" rerouteNo="0" devices="tripinfo_veh196" vType="passenger" speedFactor="1.07" vaporized=""/>