<?xml version="1.0" encoding="UTF-8"?>

<!-- generated on 2025-06-15 22:08:29 by Eclipse SUMO sumo Version 1.22.0
<sumoConfiguration xmlns:xsi="http://www.w3.org/2001/XMLSchema-instance" xsi:noNamespaceSchemaLocation="http://sumo.dlr.de/xsd/sumoConfiguration.xsd">

    <input>
        <net-file value="E:/licenta/oras-mediu/2025-06-05-11-45-23\osm.net.xml"/>
        <route-files value="E:/licenta/oras-mediu/2025-06-05-11-45-23\full.rou.xml,E:/licenta/oras-mediu/2025-06-05-11-45-23\ ped.rou.xml,E:/licenta/oras-mediu/2025-06-05-11-45-23\ truck.rou.xml"/>
        <additional-files value="E:/licenta/oras-mediu/2025-06-05-11-45-23\osm.poly.xml,E:/licenta/oras-mediu/2025-06-05-11-45-23\ vtypes.xml"/>
    </input>

    <output>
        <summary-output value="E:/licenta/oras-mediu/2025-06-05-11-45-23\summary.xml"/>
        <tripinfo-output value="E:/licenta/oras-mediu/2025-06-05-11-45-23\tripinfo.xml"/>
    </output>

    <processing>
        <ignore-route-errors value="true"/>
        <tls.actuated.jam-threshold value="30"/>
    </processing>

    <routing>
        <device.rerouting.adaptation-steps value="18"/>
        <device.rerouting.adaptation-interval value="10"/>
    </routing>

    <report>
        <verbose value="true"/>
        <duration-log.statistics value="true"/>
        <no-step-log value="true"/>
    </report>

    <traci_server>
        <remote-port value="49215"/>
    </traci_server>

    <gui_only>
        <gui-settings-file value="E:/licenta/oras-mediu/2025-06-05-11-45-23\osm.view.xml"/>
    </gui_only>

</sumoConfiguration>
-->

<tripinfos xmlns:xsi="http://www.w3.org/2001/XMLSchema-instance" xsi:noNamespaceSchemaLocation="http://sumo.dlr.de/xsd/tripinfo_file.xsd">
    <tripinfo id="veh4" depart="3.00" departLane="-984513295_0" departPos="11.65" departSpeed="0.00" departDelay="0.96" arrival="31.00" arrivalLane="-1054663953_0" arrivalPos="46.63" arrivalSpeed="5.04" duration="28.00" routeLength="169.51" waitingTime="0.00" waitingCount="0" stopTime="0.00" timeLoss="5.79" rerouteNo="0" devices="tripinfo_veh4" vType="passenger" speedFactor="1.02" vaporized=""/>
    <tripinfo id="veh9" depart="5.00" departLane="48736618_1" departPos="21.26" departSpeed="0.00" departDelay="0.41" arrival="38.00" arrivalLane="-1054663953_0" arrivalPos="46.63" arrivalSpeed="5.43" duration="33.00" routeLength="262.73" waitingTime="0.00" waitingCount="0" stopTime="0.00" timeLoss="9.11" rerouteNo="0" devices="tripinfo_veh9" vType="passenger" speedFactor="1.12" vaporized=""/>
    <tripinfo id="veh39" depart="20.00" departLane="43546789#2_1" departPos="59.08" departSpeed="0.00" departDelay="0.11" arrival="45.00" arrivalLane="40304754#4_1" arrivalPos="101.37" arrivalSpeed="10.91" duration="25.00" routeLength="218.67" waitingTime="0.00" waitingCount="0" stopTime="0.00" timeLoss="5.45" rerouteNo="0" devices="tripinfo_veh39" vType="passenger" speedFactor="0.88" vaporized=""/>
    <tripinfo id="veh78" depart="40.00" departLane="43546460#0_1" departPos="291.91" departSpeed="0.00" departDelay="0.22" arrival="88.00" arrivalLane="671642318#2_1" arrivalPos="31.59" arrivalSpeed="11.99" duration="48.00" routeLength="473.56" waitingTime="0.00" waitingCount="0" stopTime="0.00" timeLoss="8.46" rerouteNo="0" devices="tripinfo_veh78" vType="passenger" speedFactor="0.91" vaporized=""/>
    <tripinfo id="veh95" depart="49.00" departLane="-1107366376_0" departPos="139.68" departSpeed="0.00" departDelay="0.55" arrival="88.00" arrivalLane="48778429#1_1" arrivalPos="67.29" arrivalSpeed="14.51" duration="39.00" routeLength="475.09" waitingTime="0.00" waitingCount="0" stopTime="0.00" timeLoss="7.06" rerouteNo="0" devices="tripinfo_veh95" vType="passenger" speedFactor="1.13" vaporized=""/>
    <tripinfo id="veh82" depart="42.00" departLane="43544197#5_1" departPos="0.45" departSpeed="0.00" departDelay="0.18" arrival="89.00" arrivalLane="-43546105#3_1" arrivalPos="36.33" arrivalSpeed="12.55" duration="47.00" routeLength="478.91" waitingTime="0.00" waitingCount="0" stopTime="0.00" timeLoss="10.56" rerouteNo="0" devices="tripinfo_veh82" vType="delivery" speedFactor="0.98" vaporized=""/>
    <tripinfo id="veh81" depart="42.00" departLane="-43544184#1_1" departPos="0.16" departSpeed="0.00" departDelay="0.69" arrival="90.00" arrivalLane="43547017#3_1" arrivalPos="48.19" arrivalSpeed="13.18" duration="48.00" routeLength="441.37" waitingTime="0.00" waitingCount="0" stopTime="0.00" timeLoss="12.48" rerouteNo="0" devices="tripinfo_veh81" vType="emergency" speedFactor="1.00" vaporized=""/>
    <tripinfo id="veh23" depart="12.00" departLane="40345956#3_1" departPos="2.05" departSpeed="0.00" departDelay="0.27" arrival="91.00" arrivalLane="-223883703_0" arrivalPos="83.93" arrivalSpeed="5.73" duration="79.00" routeLength="935.91" waitingTime="0.00" waitingCount="0" stopTime="0.00" timeLoss="9.31" rerouteNo="0" devices="tripinfo_veh23" vType="passenger" speedFactor="1.13" vaporized=""/>
    <tripinfo id="veh83" depart="43.00" departLane="48736611#0_1" departPos="17.41" departSpeed="0.00" departDelay="0.67" arrival="94.00" arrivalLane="48736602_1" arrivalPos="229.50" arrivalSpeed="14.50" duration="51.00" routeLength="490.93" waitingTime="0.00" waitingCount="0" stopTime="0.00" timeLoss="10.88" rerouteNo="0" devices="tripinfo_veh83" vType="passenger" speedFactor="1.06" vaporized=""/>
    <tripinfo id="veh61" depart="32.00" departLane="-40330592_1" departPos="51.50" departSpeed="0.00" departDelay="0.89" arrival="97.00" arrivalLane="354259933#1_1" arrivalPos="32.06" arrivalSpeed="14.85" duration="65.00" routeLength="688.10" waitingTime="0.00" waitingCount="0" stopTime="0.00" timeLoss="16.95" rerouteNo="0" devices="tripinfo_veh61" vType="passenger" speedFactor="1.12" vaporized=""/>
    <tripinfo id="veh87" depart="45.00" departLane="43573547#1_1" departPos="22.60" departSpeed="0.00" departDelay="0.63" arrival="100.00" arrivalLane="48778493#2_1" arrivalPos="44.65" arrivalSpeed="12.32" duration="55.00" routeLength="627.60" waitingTime="0.00" waitingCount="0" stopTime="0.00" timeLoss="7.36" rerouteNo="0" devices="tripinfo_veh87" vType="passenger" speedFactor="0.98" vaporized=""/>
    <tripinfo id="veh108" depart="56.00" departLane="250295379_1" departPos="42.37" departSpeed="0.00" departDelay="0.92" arrival="113.00" arrivalLane="-984521612#0_0" arrivalPos="12.48" arrivalSpeed="5.10" duration="57.00" routeLength="400.10" waitingTime="0.00" waitingCount="0" stopTime="0.00" timeLoss="12.82" rerouteNo="0" devices="tripinfo_veh108" vType="passenger" speedFactor="1.03" vaporized=""/>
    <tripinfo id="veh54" depart="28.00" departLane="143207979#0_1" departPos="24.33" departSpeed="0.00" departDelay="0.46" arrival="114.00" arrivalLane="-222608881#0_1" arrivalPos="169.24" arrivalSpeed="13.13" duration="86.00" routeLength="924.36" waitingTime="0.00" waitingCount="0" stopTime="0.00" timeLoss="14.01" rerouteNo="0" devices="tripinfo_veh54" vType="passenger" speedFactor="0.96" vaporized=""/>
    <tripinfo id="veh80" depart="41.00" departLane="-222605087#1_1" departPos="3.69" departSpeed="0.00" departDelay="0.20" arrival="118.00" arrivalLane="353939570#7_2" arrivalPos="11.98" arrivalSpeed="11.18" duration="77.00" routeLength="712.62" waitingTime="1.00" waitingCount="1" stopTime="0.00" timeLoss="20.58" rerouteNo="0" devices="tripinfo_veh80" vType="passenger" speedFactor="1.10" vaporized=""/>
    <tripinfo id="truck25" depart="26.00" departLane="48788485#0_1" departPos="12.10" departSpeed="0.00" departDelay="0.00" arrival="122.00" arrivalLane="48788485#5_1" arrivalPos="101.99" arrivalSpeed="13.67" duration="96.00" routeLength="805.24" waitingTime="18.00" waitingCount="1" stopTime="0.00" timeLoss="37.49" rerouteNo="0" devices="tripinfo_truck25" vType="truck" speedFactor="1.02" vaporized=""/>
    <tripinfo id="veh86" depart="44.00" departLane="-859732801#1_1" departPos="17.37" departSpeed="0.00" departDelay="0.14" arrival="123.00" arrivalLane="-48778495#0_1" arrivalPos="107.63" arrivalSpeed="8.31" duration="79.00" routeLength="759.05" waitingTime="0.00" waitingCount="0" stopTime="0.00" timeLoss="16.07" rerouteNo="0" devices="tripinfo_veh86" vType="passenger" speedFactor="1.03" vaporized=""/>
    <tripinfo id="veh140" depart="72.00" departLane="898519021_1" departPos="7.55" departSpeed="0.00" departDelay="0.60" arrival="130.00" arrivalLane="48778480#5_1" arrivalPos="195.85" arrivalSpeed="11.31" duration="58.00" routeLength="534.39" waitingTime="0.00" waitingCount="0" stopTime="0.00" timeLoss="9.82" rerouteNo="0" devices="tripinfo_veh140" vType="passenger" speedFactor="0.87" vaporized=""/>
    <tripinfo id="veh101" depart="52.00" departLane="40345956#0_1" departPos="39.48" departSpeed="0.00" departDelay="0.49" arrival="133.00" arrivalLane="-222605087#2_1" arrivalPos="14.86" arrivalSpeed="5.22" duration="81.00" routeLength="530.47" waitingTime="0.00" waitingCount="0" stopTime="0.00" timeLoss="17.13" rerouteNo="0" devices="tripinfo_veh101" vType="passenger" speedFactor="1.02" vaporized=""/>
    <tripinfo id="veh26" depart="14.00" departLane="-647621857_0" departPos="27.77" departSpeed="0.00" departDelay="0.74" arrival="141.00" arrivalLane="-492965073#8_1" arrivalPos="91.38" arrivalSpeed="14.71" duration="127.00" routeLength="1136.84" waitingTime="6.00" waitingCount="2" stopTime="0.00" timeLoss="48.71" rerouteNo="0" devices="tripinfo_veh26" vType="passenger" speedFactor="1.12" vaporized=""/>
    <tripinfo id="veh73" depart="38.00" departLane="-48778527_1" departPos="17.30" departSpeed="0.00" departDelay="0.77" arrival="141.00" arrivalLane="-43546053#0_1" arrivalPos="315.83" arrivalSpeed="11.33" duration="103.00" routeLength="991.94" waitingTime="0.00" waitingCount="0" stopTime="0.00" timeLoss="14.79" rerouteNo="0" devices="tripinfo_veh73" vType="passenger" speedFactor="0.83" vaporized=""/>
    <tripinfo id="veh32" depart="17.00" departLane="48778475#2_1" departPos="10.87" departSpeed="0.00" departDelay="0.68" arrival="145.00" arrivalLane="-250295380#0_1" arrivalPos="168.50" arrivalSpeed="4.11" duration="128.00" routeLength="543.01" waitingTime="0.00" waitingCount="0" stopTime="0.00" timeLoss="10.12" rerouteNo="0" devices="tripinfo_veh32" vType="bicycle" speedFactor="0.83" vaporized=""/>
    <tripinfo id="veh177" depart="91.00" departLane="143207979#7_1" departPos="37.86" departSpeed="0.00" departDelay="0.73" arrival="151.00" arrivalLane="48778431#4_2" arrivalPos="151.14" arrivalSpeed="14.75" duration="60.00" routeLength="706.94" waitingTime="0.00" waitingCount="0" stopTime="0.00" timeLoss="12.31" rerouteNo="0" devices="tripinfo_veh177" vType="motorcycle" speedFactor="1.10" vaporized=""/>
    <tripinfo id="veh40" depart="21.00" departLane="-33909936#0_1" departPos="6.72" departSpeed="0.00" departDelay="0.60" arrival="152.00" arrivalLane="-40236228#0_1" arrivalPos="90.81" arrivalSpeed="14.24" duration="131.00" routeLength="1497.27" waitingTime="1.00" waitingCount="1" stopTime="0.00" timeLoss="26.40" rerouteNo="0" devices="tripinfo_veh40" vType="passenger" speedFactor="1.06" vaporized=""/>
    <personinfo id="ped17" depart="85.00" type="DEFAULT_PEDTYPE" speedFactor="1.24" duration="70.00" waitingTime="0.00" timeLoss="8.57" traveltime="70.00">
        <walk depart="85.00" departPos="0.00" arrival="155.00" arrivalPos="12.69" duration="70.00" routeLength="105.48" timeLoss="8.57" maxSpeed="1.72"/>
    </personinfo>
    <tripinfo id="veh107" depart="55.00" departLane="-647998060#1_1" departPos="13.33" departSpeed="0.00" departDelay="0.43" arrival="158.00" arrivalLane="-43544179#6_1" arrivalPos="35.50" arrivalSpeed="15.12" duration="103.00" routeLength="1265.77" waitingTime="0.00" waitingCount="0" stopTime="0.00" timeLoss="17.03" rerouteNo="0" devices="tripinfo_veh107" vType="motorcycle" speedFactor="1.10" vaporized=""/>
    <tripinfo id="veh109" depart="56.00" departLane="48736641_1" departPos="12.38" departSpeed="0.00" departDelay="0.41" arrival="158.00" arrivalLane="-1136301812#0_1" arrivalPos="36.85" arrivalSpeed="10.49" duration="102.00" routeLength="634.50" waitingTime="14.00" waitingCount="2" stopTime="0.00" timeLoss="40.20" rerouteNo="0" devices="tripinfo_veh109" vType="motorcycle" speedFactor="0.84" vaporized=""/>
    <personinfo id="ped24" depart="120.00" type="DEFAULT_PEDTYPE" speedFactor="1.01" duration="43.00" waitingTime="0.00" timeLoss="5.26" traveltime="43.00">
        <walk depart="120.00" departPos="0.00" arrival="163.00" arrivalPos="16.25" duration="43.00" routeLength="52.98" timeLoss="5.26" maxSpeed="1.40"/>
    </personinfo>
    <tripinfo id="veh69" depart="36.00" departLane="48736620#1_2" departPos="25.82" departSpeed="0.00" departDelay="0.81" arrival="169.00" arrivalLane="48797773_1" arrivalPos="23.80" arrivalSpeed="11.22" duration="133.00" routeLength="1444.60" waitingTime="0.00" waitingCount="0" stopTime="0.00" timeLoss="22.33" rerouteNo="0" devices="tripinfo_veh69" vType="passenger" speedFactor="0.98" vaporized=""/>
    <personinfo id="ped30" depart="150.00" type="DEFAULT_PEDTYPE" speedFactor="1.09" duration="20.00" waitingTime="0.00" timeLoss="1.69" traveltime="20.00">
        <walk depart="150.00" departPos="0.00" arrival="170.00" arrivalPos="23.00" duration="20.00" routeLength="27.81" timeLoss="1.69" maxSpeed="1.52"/>
    </personinfo>
    <tripinfo id="veh160" depart="82.00" departLane="48778485#0_1" departPos="18.27" departSpeed="0.00" departDelay="0.40" arrival="173.00" arrivalLane="-354259927_1" arrivalPos="310.58" arrivalSpeed="15.81" duration="91.00" routeLength="1176.23" waitingTime="0.00" waitingCount="0" stopTime="0.00" timeLoss="20.59" rerouteNo="0" devices="tripinfo_veh160" vType="passenger" speedFactor="1.15" vaporized=""/>
    <tripinfo id="veh105" depart="54.00" departLane="-996489799#1_0" departPos="46.01" departSpeed="0.00" departDelay="0.45" arrival="176.00" arrivalLane="-48736648#0_1" arrivalPos="0.20" arrivalSpeed="5.00" duration="122.00" routeLength="1393.66" waitingTime="0.00" waitingCount="0" stopTime="0.00" timeLoss="25.62" rerouteNo="0" devices="tripinfo_veh105" vType="passenger" speedFactor="1.12" vaporized=""/>
    <tripinfo id="veh191" depart="98.00" departLane="43573769#0_1" departPos="37.84" departSpeed="0.00" departDelay="0.59" arrival="176.00" arrivalLane="43573573#3_1" arrivalPos="71.51" arrivalSpeed="14.30" duration="78.00" routeLength="672.33" waitingTime="7.00" waitingCount="1" stopTime="0.00" timeLoss="28.76" rerouteNo="0" devices="tripinfo_veh191" vType="delivery" speedFactor="1.08" vaporized=""/>
    <tripinfo id="veh102" depart="53.00" departLane="222605084#2_1" departPos="0.45" departSpeed="0.00" departDelay="0.98" arrival="178.00" arrivalLane="33909936#2_1" arrivalPos="59.66" arrivalSpeed="12.13" duration="125.00" routeLength="1041.70" waitingTime="0.00" waitingCount="0" stopTime="0.00" timeLoss="12.75" rerouteNo="0" devices="tripinfo_veh102" vType="passenger" speedFactor="0.89" vaporized=""/>
    <tripinfo id="veh29" depart="17.00" departLane="-383582504#0_0" departPos="0.24" departSpeed="0.00" departDelay="2.21" arrival="183.00" arrivalLane="43546039#1_1" arrivalPos="97.78" arrivalSpeed="12.04" duration="166.00" routeLength="1954.37" waitingTime="0.00" waitingCount="0" stopTime="0.00" timeLoss="25.18" rerouteNo="0" devices="tripinfo_veh29" vType="motorcycle" speedFactor="1.02" vaporized=""/>
    <tripinfo id="veh230" depart="118.00" departLane="40299739#0_1" departPos="89.19" departSpeed="0.00" departDelay="0.70" arrival="184.00" arrivalLane="48736641_1" arrivalPos="16.88" arrivalSpeed="10.50" duration="66.00" routeLength="780.18" waitingTime="0.00" waitingCount="0" stopTime="0.00" timeLoss="14.92" rerouteNo="0" devices="tripinfo_veh230" vType="passenger" speedFactor="1.16" vaporized=""/>
    <tripinfo id="veh31" depart="16.00" departLane="43544184#3_1" departPos="12.61" departSpeed="0.00" departDelay="0.19" arrival="187.00" arrivalLane="-250295384_1" arrivalPos="124.18" arrivalSpeed="14.84" duration="171.00" routeLength="1935.07" waitingTime="0.00" waitingCount="0" stopTime="0.00" timeLoss="40.99" rerouteNo="0" devices="tripinfo_veh31" vType="passenger" speedFactor="1.10" vaporized=""/>
    <tripinfo id="veh79" depart="41.00" departLane="-48736619_1" departPos="19.08" departSpeed="0.00" departDelay="0.71" arrival="189.00" arrivalLane="-898519021_1" arrivalPos="62.05" arrivalSpeed="14.58" duration="148.00" routeLength="1451.52" waitingTime="23.00" waitingCount="2" stopTime="0.00" timeLoss="52.39" rerouteNo="0" devices="tripinfo_veh79" vType="passenger" speedFactor="1.14" vaporized=""/>
    <tripinfo id="veh136" depart="70.00" departLane="264868325_1" departPos="58.78" departSpeed="0.00" departDelay="0.64" arrival="189.00" arrivalLane="-143207979#3_1" arrivalPos="38.67" arrivalSpeed="13.43" duration="119.00" routeLength="1293.66" waitingTime="0.00" waitingCount="0" stopTime="0.00" timeLoss="18.41" rerouteNo="0" devices="tripinfo_veh136" vType="passenger" speedFactor="0.97" vaporized=""/>
    <tripinfo id="veh238" depart="122.00" departLane="1135854143_1" departPos="38.62" departSpeed="0.00" departDelay="0.62" arrival="189.00" arrivalLane="1054663943_1" arrivalPos="27.53" arrivalSpeed="8.03" duration="67.00" routeLength="326.25" waitingTime="21.00" waitingCount="1" stopTime="0.00" timeLoss="38.14" rerouteNo="0" devices="tripinfo_veh238" vType="delivery" speedFactor="0.98" vaporized=""/>
    <tripinfo id="veh223" depart="114.00" departLane="859732802#1_0" departPos="79.63" departSpeed="0.00" departDelay="0.27" arrival="190.00" arrivalLane="-40236203#2_1" arrivalPos="10.99" arrivalSpeed="10.45" duration="76.00" routeLength="549.67" waitingTime="1.00" waitingCount="1" stopTime="0.00" timeLoss="17.89" rerouteNo="0" devices="tripinfo_veh223" vType="passenger" speedFactor="0.85" vaporized=""/>
    <tripinfo id="veh273" depart="140.00" departLane="-48736612#7_1" departPos="15.72" departSpeed="0.00" departDelay="0.77" arrival="192.00" arrivalLane="-859738688_0" arrivalPos="223.29" arrivalSpeed="5.35" duration="52.00" routeLength="304.92" waitingTime="0.00" waitingCount="0" stopTime="0.00" timeLoss="8.03" rerouteNo="0" devices="tripinfo_veh273" vType="delivery" speedFactor="1.08" vaporized=""/>
    <tripinfo id="veh216" depart="111.00" departLane="40265775#0_1" departPos="43.50" departSpeed="0.00" departDelay="0.84" arrival="193.00" arrivalLane="43546105#3_1" arrivalPos="36.33" arrivalSpeed="12.92" duration="82.00" routeLength="901.14" waitingTime="0.00" waitingCount="0" stopTime="0.00" timeLoss="12.39" rerouteNo="0" devices="tripinfo_veh216" vType="passenger" speedFactor="0.95" vaporized=""/>
    <tripinfo id="veh166" depart="85.00" departLane="647347140#1_1" departPos="22.20" departSpeed="0.00" departDelay="0.34" arrival="194.00" arrivalLane="48778511_1" arrivalPos="75.86" arrivalSpeed="11.33" duration="109.00" routeLength="1049.71" waitingTime="0.00" waitingCount="0" stopTime="0.00" timeLoss="16.98" rerouteNo="0" devices="tripinfo_veh166" vType="passenger" speedFactor="0.87" vaporized=""/>
    <tripinfo id="veh62" depart="32.00" departLane="40266620_1" departPos="11.92" departSpeed="0.00" departDelay="0.38" arrival="196.00" arrivalLane="-383582506_0" arrivalPos="44.83" arrivalSpeed="4.76" duration="164.00" routeLength="1900.43" waitingTime="0.00" waitingCount="0" stopTime="0.00" timeLoss="20.44" rerouteNo="0" devices="tripinfo_veh62" vType="passenger" speedFactor="1.03" vaporized=""/>
    <tripinfo id="veh48" depart="25.00" departLane="40330557#0_1" departPos="2.26" departSpeed="0.00" departDelay="0.52" arrival="198.00" arrivalLane="48736647#1_1" arrivalPos="90.38" arrivalSpeed="13.62" duration="173.00" routeLength="1846.31" waitingTime="3.00" waitingCount="1" stopTime="0.00" timeLoss="34.82" rerouteNo="0" devices="tripinfo_veh48" vType="passenger" speedFactor="1.00" vaporized=""/>
    <tripinfo id="veh189" depart="97.00" departLane="-353939570#7_1" departPos="9.02" departSpeed="0.00" departDelay="0.61" arrival="199.00" arrivalLane="-1136119745_1" arrivalPos="22.49" arrivalSpeed="5.25" duration="102.00" routeLength="534.27" waitingTime="0.00" waitingCount="0" stopTime="0.00" timeLoss="9.42" rerouteNo="0" devices="tripinfo_veh189" vType="bicycle" speedFactor="1.04" vaporized=""/>
    <tripinfo id="veh125" depart="64.00" departLane="-859732801#1_1" departPos="11.84" departSpeed="0.00" departDelay="0.25" arrival="202.00" arrivalLane="-671642327_0" arrivalPos="205.40" arrivalSpeed="4.93" duration="138.00" routeLength="1295.49" waitingTime="0.00" waitingCount="0" stopTime="0.00" timeLoss="23.98" rerouteNo="0" devices="tripinfo_veh125" vType="motorcycle" speedFactor="1.04" vaporized=""/>
    <tripinfo id="veh135" depart="69.00" departLane="530106516#0_1" departPos="56.24" departSpeed="0.00" departDelay="0.15" arrival="202.00" arrivalLane="-264868333_1" arrivalPos="76.76" arrivalSpeed="15.33" duration="133.00" routeLength="1270.96" waitingTime="15.00" waitingCount="1" stopTime="0.00" timeLoss="47.07" rerouteNo="0" devices="tripinfo_veh135" vType="passenger" speedFactor="1.13" vaporized=""/>
    <tripinfo id="veh16" depart="9.00" departLane="-859729932_0" departPos="68.94" departSpeed="0.00" departDelay="0.84" arrival="203.00" arrivalLane="40299276#1_1" arrivalPos="70.79" arrivalSpeed="13.02" duration="194.00" routeLength="1853.87" waitingTime="25.00" waitingCount="2" stopTime="0.00" timeLoss="53.88" rerouteNo="0" devices="tripinfo_veh16" vType="emergency" speedFactor="1.00" vaporized=""/>
    <tripinfo id="veh151" depart="78.00" departLane="43544179#9_1" departPos="128.91" departSpeed="0.00" departDelay="0.99" arrival="203.00" arrivalLane="-48778502#0_1" arrivalPos="26.17" arrivalSpeed="12.84" duration="125.00" routeLength="1210.01" waitingTime="11.00" waitingCount="1" stopTime="0.00" timeLoss="32.25" rerouteNo="0" devices="tripinfo_veh151" vType="delivery" speedFactor="0.97" vaporized=""/>
    <tripinfo id="veh5" depart="3.00" departLane="-945793490#2_1" departPos="6.47" departSpeed="0.00" departDelay="0.45" arrival="205.00" arrivalLane="-48736624#2_1" arrivalPos="0.72" arrivalSpeed="8.98" duration="202.00" routeLength="1751.31" waitingTime="26.00" waitingCount="2" stopTime="0.00" timeLoss="55.31" rerouteNo="0" devices="tripinfo_veh5" vType="delivery" speedFactor="1.05" vaporized=""/>
    <tripinfo id="veh58" depart="30.00" departLane="-1136289992_1" departPos="2.01" departSpeed="0.00" departDelay="0.42" arrival="207.00" arrivalLane="48736647#1_1" arrivalPos="90.38" arrivalSpeed="13.37" duration="177.00" routeLength="1993.23" waitingTime="0.00" waitingCount="0" stopTime="0.00" timeLoss="21.77" rerouteNo="0" devices="tripinfo_veh58" vType="delivery" speedFactor="0.96" vaporized=""/>
    <tripinfo id="veh241" depart="123.00" departLane="-470210923#3_1" departPos="4.11" departSpeed="0.00" departDelay="0.09" arrival="208.00" arrivalLane="-1135772296#0_0" arrivalPos="22.09" arrivalSpeed="6.05" duration="85.00" routeLength="915.01" waitingTime="3.00" waitingCount="2" stopTime="0.00" timeLoss="22.60" rerouteNo="0" devices="tripinfo_veh241" vType="passenger" speedFactor="1.16" vaporized=""/>
    <tripinfo id="veh17" depart="9.00" departLane="354252039#0_1" departPos="44.79" departSpeed="0.00" departDelay="0.33" arrival="209.00" arrivalLane="48736617#1_1" arrivalPos="109.81" arrivalSpeed="13.77" duration="200.00" routeLength="1890.03" waitingTime="22.00" waitingCount="2" stopTime="0.00" timeLoss="60.84" rerouteNo="0" devices="tripinfo_veh17" vType="passenger" speedFactor="1.02" vaporized=""/>
    <tripinfo id="veh55" depart="29.00" departLane="-996489799#1_0" departPos="24.79" departSpeed="0.00" departDelay="0.95" arrival="210.00" arrivalLane="48736648#0_0" arrivalPos="0.20" arrivalSpeed="4.53" duration="181.00" routeLength="1426.59" waitingTime="33.00" waitingCount="2" stopTime="0.00" timeLoss="56.95" rerouteNo="0" devices="tripinfo_veh55" vType="passenger" speedFactor="0.91" vaporized=""/>
    <tripinfo id="veh68" depart="35.00" departLane="-859735387#1_0" departPos="1.05" departSpeed="0.00" departDelay="0.32" arrival="210.00" arrivalLane="-996984133_1" arrivalPos="75.36" arrivalSpeed="8.33" duration="175.00" routeLength="1863.54" waitingTime="8.00" waitingCount="1" stopTime="0.00" timeLoss="32.86" rerouteNo="0" devices="tripinfo_veh68" vType="passenger" speedFactor="1.08" vaporized=""/>
    <tripinfo id="veh150" depart="77.00" departLane="-48778522_1" departPos="19.45" departSpeed="0.00" departDelay="0.50" arrival="210.00" arrivalLane="647998063#1_1" arrivalPos="65.11" arrivalSpeed="12.18" duration="133.00" routeLength="1185.94" waitingTime="4.00" waitingCount="1" stopTime="0.00" timeLoss="34.05" rerouteNo="0" devices="tripinfo_veh150" vType="passenger" speedFactor="0.93" vaporized=""/>
    <tripinfo id="veh85" depart="44.00" departLane="-48736646#0_1" departPos="84.81" departSpeed="0.00" departDelay="0.65" arrival="215.00" arrivalLane="-383582498_0" arrivalPos="181.50" arrivalSpeed="2.16" duration="171.00" routeLength="1369.51" waitingTime="0.00" waitingCount="0" stopTime="0.00" timeLoss="27.65" rerouteNo="0" devices="tripinfo_veh85" vType="passenger" speedFactor="1.08" vaporized=""/>
    <tripinfo id="veh64" depart="33.00" departLane="43544184#3_1" departPos="18.92" departSpeed="0.00" departDelay="0.36" arrival="217.00" arrivalLane="-945793485#1_1" arrivalPos="18.53" arrivalSpeed="11.71" duration="184.00" routeLength="2094.30" waitingTime="0.00" waitingCount="0" stopTime="0.00" timeLoss="33.32" rerouteNo="0" devices="tripinfo_veh64" vType="passenger" speedFactor="1.09" vaporized=""/>
    <tripinfo id="veh20" depart="11.00" departLane="-859728207_0" departPos="17.82" departSpeed="0.00" departDelay="0.80" arrival="219.00" arrivalLane="-945793486#1_0" arrivalPos="53.92" arrivalSpeed="5.20" duration="208.00" routeLength="1503.87" waitingTime="42.00" waitingCount="3" stopTime="0.00" timeLoss="77.75" rerouteNo="0" devices="tripinfo_veh20" vType="passenger" speedFactor="1.01" vaporized=""/>
    <tripinfo id="veh36" depart="19.00" departLane="-40266620_1" departPos="9.43" departSpeed="0.00" departDelay="0.64" arrival="219.00" arrivalLane="67736383_1" arrivalPos="44.81" arrivalSpeed="13.23" duration="200.00" routeLength="2190.34" waitingTime="0.00" waitingCount="0" stopTime="0.00" timeLoss="37.72" rerouteNo="0" devices="tripinfo_veh36" vType="emergency" speedFactor="1.00" vaporized=""/>
    <tripinfo id="veh188" depart="96.00" departLane="48778464#2_1" departPos="6.39" departSpeed="0.00" departDelay="0.12" arrival="220.00" arrivalLane="-40236203#0_1" arrivalPos="83.44" arrivalSpeed="11.71" duration="124.00" routeLength="841.17" waitingTime="26.00" waitingCount="1" stopTime="0.00" timeLoss="51.40" rerouteNo="0" devices="tripinfo_veh188" vType="delivery" speedFactor="0.93" vaporized=""/>
    <tripinfo id="veh183" depart="94.00" departLane="143207979#3_1" departPos="5.05" departSpeed="0.00" departDelay="0.67" arrival="222.00" arrivalLane="-647347140#1_1" arrivalPos="28.09" arrivalSpeed="11.62" duration="128.00" routeLength="1322.73" waitingTime="0.00" waitingCount="0" stopTime="0.00" timeLoss="19.13" rerouteNo="0" devices="tripinfo_veh183" vType="passenger" speedFactor="0.91" vaporized=""/>
    <tripinfo id="veh84" depart="43.00" departLane="48736656#3_1" departPos="56.04" departSpeed="0.00" departDelay="0.16" arrival="223.00" arrivalLane="258551317_1" arrivalPos="85.97" arrivalSpeed="12.38" duration="180.00" routeLength="1598.00" waitingTime="18.00" waitingCount="2" stopTime="0.00" timeLoss="48.02" rerouteNo="0" devices="tripinfo_veh84" vType="passenger" speedFactor="0.89" vaporized=""/>
    <tripinfo id="veh30" depart="16.00" departLane="40236144#0_1" departPos="44.92" departSpeed="0.00" departDelay="0.70" arrival="224.00" arrivalLane="43546935#0_1" arrivalPos="223.83" arrivalSpeed="12.11" duration="208.00" routeLength="2243.75" waitingTime="7.00" waitingCount="1" stopTime="0.00" timeLoss="31.97" rerouteNo="0" devices="tripinfo_veh30" vType="passenger" speedFactor="0.94" vaporized=""/>
    <tripinfo id="veh124" depart="64.00" departLane="-671606411_1" departPos="146.71" departSpeed="0.00" departDelay="0.76" arrival="224.00" arrivalLane="48778446#2_1" arrivalPos="11.20" arrivalSpeed="11.85" duration="160.00" routeLength="949.54" waitingTime="61.00" waitingCount="1" stopTime="0.00" timeLoss="86.90" rerouteNo="0" devices="tripinfo_veh124" vType="passenger" speedFactor="0.97" vaporized=""/>
    <tripinfo id="veh234" depart="120.00" departLane="251916699#1_1" departPos="4.99" departSpeed="0.00" departDelay="0.66" arrival="225.00" arrivalLane="43546789#0_1" arrivalPos="14.66" arrivalSpeed="10.50" duration="105.00" routeLength="1037.04" waitingTime="2.00" waitingCount="1" stopTime="0.00" timeLoss="22.04" rerouteNo="0" devices="tripinfo_veh234" vType="motorcycle" speedFactor="0.94" vaporized=""/>
    <tripinfo id="veh42" depart="22.00" departLane="-647226815#0_1" departPos="31.54" departSpeed="0.00" departDelay="0.58" arrival="226.00" arrivalLane="-250295379_1" arrivalPos="126.33" arrivalSpeed="14.19" duration="204.00" routeLength="2472.51" waitingTime="0.00" waitingCount="0" stopTime="0.00" timeLoss="30.22" rerouteNo="0" devices="tripinfo_veh42" vType="passenger" speedFactor="1.05" vaporized=""/>
    <tripinfo id="veh92" depart="47.00" departLane="43544588#0_1" departPos="25.37" departSpeed="0.00" departDelay="0.08" arrival="226.00" arrivalLane="43546519#2_1" arrivalPos="8.00" arrivalSpeed="11.72" duration="179.00" routeLength="2241.78" waitingTime="0.00" waitingCount="0" stopTime="0.00" timeLoss="29.49" rerouteNo="0" devices="tripinfo_veh92" vType="passenger" speedFactor="1.10" vaporized=""/>
    <tripinfo id="veh256" depart="131.00" departLane="40330557#4_1" departPos="2.62" departSpeed="0.00" departDelay="0.44" arrival="226.00" arrivalLane="222609004#1_1" arrivalPos="58.70" arrivalSpeed="14.80" duration="95.00" routeLength="963.53" waitingTime="0.00" waitingCount="0" stopTime="0.00" timeLoss="25.00" rerouteNo="0" devices="tripinfo_veh256" vType="passenger" speedFactor="1.07" vaporized=""/>