<?xml version="1.0" encoding="UTF-8"?>

<!-- generated on 2025-06-15 22:45:32 by Eclipse SUMO sumo Version 1.22.0
<sumoConfiguration xmlns:xsi="http://www.w3.org/2001/XMLSchema-instance" xsi:noNamespaceSchemaLocation="http://sumo.dlr.de/xsd/sumoConfiguration.xsd">

    <input>
        <net-file value="E:/licenta/oras-mediu/2025-06-05-11-45-23\osm.net.xml"/>
        <route-files value="E:/licenta/oras-mediu/2025-06-05-11-45-23\full.rou.xml,E:/licenta/oras-mediu/2025-06-05-11-45-23\ ped.rou.xml,E:/licenta/oras-mediu/2025-06-05-11-45-23\ truck.rou.xml"/>
        <additional-files value="E:/licenta/oras-mediu/2025-06-05-11-45-23\osm.poly.xml,E:/licenta/oras-mediu/2025-06-05-11-45-23\ vtypes.xml"/>
    </input>

    <output>
        <summary-output value="E:/licenta/oras-mediu/2025-06-05-11-45-23\summary.xml"/>
        <tripinfo-output value="E:/licenta/oras-mediu/2025-06-05-11-45-23\tripinfo.xml"/>
    </output>

    <processing>
        <ignore-route-errors value="true"/>
        <tls.actuated.jam-threshold value="30"/>
    </processing>

    <routing>
        <device.rerouting.adaptation-steps value="18"/>
        <device.rerouting.adaptation-interval value="10"/>
    </routing>

    <report>
        <verbose value="true"/>
        <duration-log.statistics value="true"/>
        <no-step-log value="true"/>
    </report>

    <traci_server>
        <remote-port value="51312"/>
    </traci_server>

    <gui_only>
        <gui-settings-file value="E:/licenta/oras-mediu/2025-06-05-11-45-23\osm.view.xml"/>
    </gui_only>

</sumoConfiguration>
-->

<tripinfos xmlns:xsi="http://www.w3.org/2001/XMLSchema-instance" xsi:noNamespaceSchemaLocation="http://sumo.dlr.de/xsd/tripinfo_file.xsd">
    <tripinfo id="veh7" depart="5.00" departLane="-48778522_1" departPos="10.13" departSpeed="0.00" departDelay="0.52" arrival="74.00" arrivalLane="-383582512#0_0" arrivalPos="35.67" arrivalSpeed="5.74" duration="69.00" routeLength="636.64" waitingTime="2.00" waitingCount="1" stopTime="0.00" timeLoss="18.24" rerouteNo="0" devices="tripinfo_veh7" vType="passenger" speedFactor="1.12" vaporized=""/>
    <tripinfo id="veh45" depart="29.00" departLane="647226815#1_1" departPos="40.30" departSpeed="0.00" departDelay="0.20" arrival="96.00" arrivalLane="43545645#2_1" arrivalPos="314.77" arrivalSpeed="12.48" duration="67.00" routeLength="708.26" waitingTime="0.00" waitingCount="0" stopTime="0.00" timeLoss="12.54" rerouteNo="0" devices="tripinfo_veh45" vType="delivery" speedFactor="0.98" vaporized=""/>
    <tripinfo id="veh6" depart="4.00" departLane="-945793486#0_0" departPos="0.04" departSpeed="0.00" departDelay="0.16" arrival="106.00" arrivalLane="48797769_1" arrivalPos="15.35" arrivalSpeed="8.98" duration="102.00" routeLength="905.95" waitingTime="0.00" waitingCount="0" stopTime="0.00" timeLoss="22.19" rerouteNo="0" devices="tripinfo_veh6" vType="passenger" speedFactor="0.92" vaporized=""/>
    <tripinfo id="veh19" depart="13.00" departLane="-143207979#1_1" departPos="11.51" departSpeed="0.00" departDelay="0.84" arrival="110.00" arrivalLane="-43544138#4_1" arrivalPos="45.15" arrivalSpeed="14.14" duration="97.00" routeLength="1117.50" waitingTime="0.00" waitingCount="0" stopTime="0.00" timeLoss="16.41" rerouteNo="0" devices="tripinfo_veh19" vType="passenger" speedFactor="1.03" vaporized=""/>
    <tripinfo id="veh12" depart="8.00" departLane="40299241#0_1" departPos="36.31" departSpeed="0.00" departDelay="0.32" arrival="120.00" arrivalLane="48736640#0_1" arrivalPos="55.87" arrivalSpeed="13.50" duration="112.00" routeLength="1311.53" waitingTime="0.00" waitingCount="0" stopTime="0.00" timeLoss="14.81" rerouteNo="0" devices="tripinfo_veh12" vType="emergency" speedFactor="1.00" vaporized=""/>
    <tripinfo id="veh5" depart="4.00" departLane="-48736640#1_1" departPos="49.86" departSpeed="0.00" departDelay="0.80" arrival="124.00" arrivalLane="-43546785_1" arrivalPos="161.51" arrivalSpeed="14.31" duration="120.00" routeLength="1233.35" waitingTime="8.00" waitingCount="1" stopTime="0.00" timeLoss="31.11" rerouteNo="0" devices="tripinfo_veh5" vType="delivery" speedFactor="1.05" vaporized=""/>
    <tripinfo id="veh63" depart="41.00" departLane="-48736655_1" departPos="5.98" departSpeed="0.00" departDelay="0.68" arrival="125.00" arrivalLane="48736607#1_1" arrivalPos="193.73" arrivalSpeed="12.09" duration="84.00" routeLength="617.18" waitingTime="14.00" waitingCount="1" stopTime="0.00" timeLoss="30.63" rerouteNo="0" devices="tripinfo_veh63" vType="passenger" speedFactor="0.90" vaporized=""/>
    <tripinfo id="veh76" depart="49.00" departLane="40315648#0_2" departPos="19.09" departSpeed="0.00" departDelay="0.36" arrival="126.00" arrivalLane="-859732802#0_0" arrivalPos="5.60" arrivalSpeed="3.98" duration="77.00" routeLength="731.40" waitingTime="0.00" waitingCount="0" stopTime="0.00" timeLoss="11.29" rerouteNo="0" devices="tripinfo_veh76" vType="passenger" speedFactor="0.91" vaporized=""/>
    <tripinfo id="veh55" depart="36.00" departLane="48778504_1" departPos="108.94" departSpeed="0.00" departDelay="0.80" arrival="129.00" arrivalLane="48778508#1_1" arrivalPos="98.38" arrivalSpeed="12.35" duration="93.00" routeLength="823.04" waitingTime="0.00" waitingCount="0" stopTime="0.00" timeLoss="25.02" rerouteNo="0" devices="tripinfo_veh55" vType="passenger" speedFactor="0.95" vaporized=""/>
    <tripinfo id="veh91" depart="59.00" departLane="647347140#1_1" departPos="24.61" departSpeed="0.00" departDelay="0.76" arrival="135.00" arrivalLane="984508802_0" arrivalPos="57.38" arrivalSpeed="5.87" duration="76.00" routeLength="759.41" waitingTime="0.00" waitingCount="0" stopTime="0.00" timeLoss="15.06" rerouteNo="0" devices="tripinfo_veh91" vType="passenger" speedFactor="1.10" vaporized=""/>
    <tripinfo id="veh56" depart="36.00" departLane="-354259933#2_1" departPos="67.29" departSpeed="0.00" departDelay="0.16" arrival="136.00" arrivalLane="-1250915722#3_1" arrivalPos="5.41" arrivalSpeed="4.57" duration="100.00" routeLength="896.46" waitingTime="0.00" waitingCount="0" stopTime="0.00" timeLoss="13.51" rerouteNo="0" devices="tripinfo_veh56" vType="passenger" speedFactor="1.02" vaporized=""/>
    <tripinfo id="veh173" depart="111.00" departLane="256684296_0" departPos="45.61" departSpeed="0.00" departDelay="0.28" arrival="138.00" arrivalLane="40314853#1_1" arrivalPos="111.61" arrivalSpeed="14.21" duration="27.00" routeLength="153.49" waitingTime="0.00" waitingCount="0" stopTime="0.00" timeLoss="7.05" rerouteNo="0" devices="tripinfo_veh173" vType="passenger" speedFactor="1.04" vaporized=""/>
    <tripinfo id="veh114" depart="73.00" departLane="-40345930_1" departPos="5.11" departSpeed="0.00" departDelay="0.04" arrival="141.00" arrivalLane="-40236203#0_1" arrivalPos="83.44" arrivalSpeed="13.51" duration="68.00" routeLength="594.77" waitingTime="3.00" waitingCount="1" stopTime="0.00" timeLoss="24.51" rerouteNo="0" devices="tripinfo_veh114" vType="passenger" speedFactor="1.06" vaporized=""/>
    <tripinfo id="veh115" depart="74.00" departLane="1232511776#0_1" departPos="50.56" departSpeed="0.00" departDelay="0.40" arrival="146.00" arrivalLane="-1136284448_1" arrivalPos="34.50" arrivalSpeed="9.25" duration="72.00" routeLength="815.11" waitingTime="0.00" waitingCount="0" stopTime="0.00" timeLoss="14.41" rerouteNo="0" devices="tripinfo_veh115" vType="passenger" speedFactor="1.11" vaporized=""/>
    <tripinfo id="veh24" depart="16.00" departLane="-258551321_1" departPos="77.60" departSpeed="0.00" departDelay="0.64" arrival="149.00" arrivalLane="-40330583#0_0" arrivalPos="91.11" arrivalSpeed="24.72" duration="133.00" routeLength="1560.04" waitingTime="4.00" waitingCount="1" stopTime="0.00" timeLoss="28.21" rerouteNo="0" devices="tripinfo_veh24" vType="passenger" speedFactor="0.99" vaporized=""/>
    <tripinfo id="veh85" depart="55.00" departLane="-995052416_0" departPos="102.63" departSpeed="0.00" departDelay="0.60" arrival="150.00" arrivalLane="160010389#2_0" arrivalPos="301.86" arrivalSpeed="13.46" duration="95.00" routeLength="1201.88" waitingTime="0.00" waitingCount="0" stopTime="0.00" timeLoss="9.87" rerouteNo="0" devices="tripinfo_veh85" vType="passenger" speedFactor="1.03" vaporized=""/>
    <tripinfo id="veh102" depart="66.00" departLane="1017995181_1" departPos="5.75" departSpeed="0.00" departDelay="0.72" arrival="161.00" arrivalLane="-25379984#2_1" arrivalPos="135.87" arrivalSpeed="14.12" duration="95.00" routeLength="890.03" waitingTime="15.00" waitingCount="1" stopTime="0.00" timeLoss="30.82" rerouteNo="0" devices="tripinfo_veh102" vType="passenger" speedFactor="1.03" vaporized=""/>
    <tripinfo id="veh75" depart="48.00" departLane="-43573547#0_1" departPos="88.59" departSpeed="0.00" departDelay="0.00" arrival="162.00" arrivalLane="-43546935#2_1" arrivalPos="44.28" arrivalSpeed="10.89" duration="114.00" routeLength="1129.37" waitingTime="0.00" waitingCount="0" stopTime="0.00" timeLoss="15.39" rerouteNo="0" devices="tripinfo_veh75" vType="passenger" speedFactor="0.86" vaporized=""/>
    <tripinfo id="veh112" depart="72.00" departLane="-48778446#2_1" departPos="0.78" departSpeed="0.00" departDelay="0.32" arrival="167.00" arrivalLane="48778473#0_1" arrivalPos="21.31" arrivalSpeed="10.16" duration="95.00" routeLength="1024.56" waitingTime="0.00" waitingCount="0" stopTime="0.00" timeLoss="17.13" rerouteNo="0" devices="tripinfo_veh112" vType="emergency" speedFactor="1.00" vaporized=""/>
    <tripinfo id="veh20" depart="13.00" departLane="-43546688#0_1" departPos="4.42" departSpeed="0.00" departDelay="0.20" arrival="168.00" arrivalLane="994065252_0" arrivalPos="159.63" arrivalSpeed="6.15" duration="155.00" routeLength="1777.31" waitingTime="0.00" waitingCount="0" stopTime="0.00" timeLoss="22.49" rerouteNo="0" devices="tripinfo_veh20" vType="passenger" speedFactor="1.13" vaporized=""/>
    <tripinfo id="veh25" depart="16.00" departLane="-48778498#2_1" departPos="16.51" departSpeed="0.00" departDelay="0.00" arrival="174.00" arrivalLane="48797773_1" arrivalPos="23.80" arrivalSpeed="12.52" duration="158.00" routeLength="1411.63" waitingTime="24.00" waitingCount="1" stopTime="0.00" timeLoss="49.55" rerouteNo="0" devices="tripinfo_veh25" vType="passenger" speedFactor="0.97" vaporized=""/>
    <tripinfo id="veh104" depart="67.00" departLane="-671386628#1_1" departPos="185.51" departSpeed="0.00" departDelay="0.44" arrival="174.00" arrivalLane="-48778500#0_1" arrivalPos="18.03" arrivalSpeed="14.88" duration="107.00" routeLength="1291.82" waitingTime="0.00" waitingCount="0" stopTime="0.00" timeLoss="19.32" rerouteNo="0" devices="tripinfo_veh104" vType="passenger" speedFactor="1.12" vaporized=""/>
    <tripinfo id="veh178" depart="114.00" departLane="43546449#2_1" departPos="2.79" departSpeed="0.00" departDelay="0.08" arrival="174.00" arrivalLane="-250295383#0_1" arrivalPos="29.94" arrivalSpeed="11.78" duration="60.00" routeLength="626.33" waitingTime="0.00" waitingCount="0" stopTime="0.00" timeLoss="13.46" rerouteNo="0" devices="tripinfo_veh178" vType="motorcycle" speedFactor="1.01" vaporized=""/>
    <tripinfo id="veh50" depart="32.00" departLane="422283114_0" departPos="172.29" departSpeed="0.00" departDelay="0.00" arrival="181.00" arrivalLane="647383048_1" arrivalPos="105.03" arrivalSpeed="12.75" duration="149.00" routeLength="1826.65" waitingTime="0.00" waitingCount="0" stopTime="0.00" timeLoss="13.11" rerouteNo="0" devices="tripinfo_veh50" vType="delivery" speedFactor="0.99" vaporized=""/>
    <tripinfo id="veh88" depart="57.00" departLane="48736612#7_1" departPos="17.20" departSpeed="0.00" departDelay="0.68" arrival="183.00" arrivalLane="250295383#0_1" arrivalPos="29.94" arrivalSpeed="16.72" duration="126.00" routeLength="1280.04" waitingTime="14.00" waitingCount="1" stopTime="0.00" timeLoss="50.28" rerouteNo="0" devices="tripinfo_veh88" vType="passenger" speedFactor="1.25" vaporized=""/>
    <tripinfo id="veh167" depart="107.00" departLane="40236203#2_1" departPos="7.85" departSpeed="0.00" departDelay="0.12" arrival="183.00" arrivalLane="1136283361_0" arrivalPos="47.88" arrivalSpeed="5.47" duration="76.00" routeLength="737.29" waitingTime="0.00" waitingCount="0" stopTime="0.00" timeLoss="13.93" rerouteNo="0" devices="tripinfo_veh167" vType="passenger" speedFactor="1.07" vaporized=""/>
    <tripinfo id="veh36" depart="24.00" departLane="43546793_1" departPos="110.19" departSpeed="0.00" departDelay="0.96" arrival="184.00" arrivalLane="40314876_1" arrivalPos="38.09" arrivalSpeed="13.95" duration="160.00" routeLength="1844.45" waitingTime="3.00" waitingCount="1" stopTime="0.00" timeLoss="34.38" rerouteNo="0" devices="tripinfo_veh36" vType="passenger" speedFactor="1.09" vaporized=""/>
    <tripinfo id="veh40" depart="26.00" departLane="-859732802#0_0" departPos="4.94" departSpeed="0.00" departDelay="0.40" arrival="184.00" arrivalLane="E26_2" arrivalPos="166.60" arrivalSpeed="16.19" duration="158.00" routeLength="2094.90" waitingTime="0.00" waitingCount="0" stopTime="0.00" timeLoss="26.32" rerouteNo="0" devices="tripinfo_veh40" vType="passenger" speedFactor="1.17" vaporized=""/>
    <tripinfo id="veh128" depart="82.00" departLane="-48778473#2_1" departPos="23.13" departSpeed="0.00" departDelay="0.08" arrival="184.00" arrivalLane="48736645_1" arrivalPos="132.12" arrivalSpeed="13.15" duration="102.00" routeLength="1054.25" waitingTime="0.00" waitingCount="0" stopTime="0.00" timeLoss="21.01" rerouteNo="0" devices="tripinfo_veh128" vType="delivery" speedFactor="1.00" vaporized=""/>
    <tripinfo id="veh132" depart="85.00" departLane="-43544138#6_1" departPos="28.94" departSpeed="0.00" departDelay="0.52" arrival="187.00" arrivalLane="43547256#0_1" arrivalPos="391.85" arrivalSpeed="14.93" duration="102.00" routeLength="1250.20" waitingTime="0.00" waitingCount="0" stopTime="0.00" timeLoss="19.15" rerouteNo="0" devices="tripinfo_veh132" vType="passenger" speedFactor="1.13" vaporized=""/>
    <tripinfo id="veh41" depart="27.00" departLane="354259933#1_1" departPos="27.11" departSpeed="0.00" departDelay="0.76" arrival="189.00" arrivalLane="-222605089#2_1" arrivalPos="24.42" arrivalSpeed="13.97" duration="162.00" routeLength="2048.12" waitingTime="0.00" waitingCount="0" stopTime="0.00" timeLoss="17.73" rerouteNo="0" devices="tripinfo_veh41" vType="passenger" speedFactor="1.05" vaporized=""/>
    <tripinfo id="veh106" depart="68.00" departLane="48778489#3_2" departPos="18.11" departSpeed="0.00" departDelay="0.16" arrival="189.00" arrivalLane="353939570#10_1" arrivalPos="350.36" arrivalSpeed="13.76" duration="121.00" routeLength="1254.41" waitingTime="4.00" waitingCount="1" stopTime="0.00" timeLoss="29.52" rerouteNo="0" devices="tripinfo_veh106" vType="passenger" speedFactor="1.03" vaporized=""/>
    <tripinfo id="veh207" depart="133.00" departLane="-222605084#8_1" departPos="1.49" departSpeed="0.00" departDelay="0.52" arrival="189.00" arrivalLane="222605087#5_1" arrivalPos="44.15" arrivalSpeed="5.89" duration="56.00" routeLength="296.33" waitingTime="0.00" waitingCount="0" stopTime="0.00" timeLoss="5.62" rerouteNo="0" devices="tripinfo_veh207" vType="bicycle" speedFactor="1.06" vaporized=""/>
    <personinfo id="ped20" depart="100.00" type="DEFAULT_PEDTYPE" speedFactor="0.83" duration="90.00" waitingTime="0.00" timeLoss="9.49" traveltime="90.00">
        <walk depart="100.00" departPos="0.00" arrival="190.00" arrivalPos="79.30" duration="90.00" routeLength="92.45" timeLoss="9.49" maxSpeed="1.15"/>
    </personinfo>
    <tripinfo id="veh1" depart="1.00" departLane="48778475#0_1" departPos="2.29" departSpeed="0.00" departDelay="0.36" arrival="191.00" arrivalLane="-40314883_1" arrivalPos="74.78" arrivalSpeed="13.83" duration="190.00" routeLength="1881.43" waitingTime="26.00" waitingCount="2" stopTime="0.00" timeLoss="61.76" rerouteNo="0" devices="tripinfo_veh1" vType="passenger" speedFactor="1.08" vaporized=""/>
    <tripinfo id="veh148" depart="95.00" departLane="-353939570#8_1" departPos="26.41" departSpeed="0.00" departDelay="0.28" arrival="191.00" arrivalLane="1136117604_1" arrivalPos="21.30" arrivalSpeed="10.85" duration="96.00" routeLength="876.47" waitingTime="0.00" waitingCount="0" stopTime="0.00" timeLoss="22.14" rerouteNo="0" devices="tripinfo_veh148" vType="passenger" speedFactor="0.93" vaporized=""/>
    <tripinfo id="veh119" depart="77.00" departLane="-E11.41_1" departPos="12.38" departSpeed="0.00" departDelay="0.84" arrival="192.00" arrivalLane="383582504#0_0" arrivalPos="3.64" arrivalSpeed="3.83" duration="115.00" routeLength="736.67" waitingTime="17.00" waitingCount="2" stopTime="0.00" timeLoss="38.41" rerouteNo="0" devices="tripinfo_veh119" vType="passenger" speedFactor="0.89" vaporized=""/>
    <tripinfo id="veh109" depart="70.00" departLane="48778461#0_1" departPos="22.74" departSpeed="0.00" departDelay="0.24" arrival="195.00" arrivalLane="48736647#1_1" arrivalPos="90.38" arrivalSpeed="13.24" duration="125.00" routeLength="1338.92" waitingTime="0.00" waitingCount="0" stopTime="0.00" timeLoss="28.16" rerouteNo="0" devices="tripinfo_veh109" vType="passenger" speedFactor="1.04" vaporized=""/>
    <tripinfo id="veh42" depart="27.00" departLane="578560104#6_1" departPos="15.55" departSpeed="0.00" departDelay="0.12" arrival="196.00" arrivalLane="143207979#2_1" arrivalPos="38.81" arrivalSpeed="13.38" duration="169.00" routeLength="1906.35" waitingTime="2.00" waitingCount="1" stopTime="0.00" timeLoss="28.65" rerouteNo="0" devices="tripinfo_veh42" vType="motorcycle" speedFactor="1.00" vaporized=""/>
    <tripinfo id="veh2" depart="2.00" departLane="48778501_1" departPos="85.93" departSpeed="0.00" departDelay="0.72" arrival="198.00" arrivalLane="-48778524#1_1" arrivalPos="19.99" arrivalSpeed="12.43" duration="196.00" routeLength="2061.44" waitingTime="0.00" waitingCount="0" stopTime="0.00" timeLoss="49.09" rerouteNo="0" devices="tripinfo_veh2" vType="passenger" speedFactor="1.08" vaporized=""/>
    <tripinfo id="veh84" depart="54.00" departLane="-383582854#1_0" departPos="43.74" departSpeed="0.00" departDelay="0.24" arrival="200.00" arrivalLane="48797767#1_1" arrivalPos="62.09" arrivalSpeed="14.72" duration="146.00" routeLength="1304.68" waitingTime="11.00" waitingCount="2" stopTime="0.00" timeLoss="51.18" rerouteNo="0" devices="tripinfo_veh84" vType="passenger" speedFactor="1.08" vaporized=""/>
    <tripinfo id="veh264" depart="169.00" departLane="258551297#1_0" departPos="49.48" departSpeed="0.00" departDelay="0.04" arrival="202.00" arrivalLane="-176279225#2_2" arrivalPos="97.77" arrivalSpeed="12.53" duration="33.00" routeLength="229.56" waitingTime="0.00" waitingCount="0" stopTime="0.00" timeLoss="5.53" rerouteNo="0" devices="tripinfo_veh264" vType="passenger" speedFactor="0.96" vaporized=""/>
    <tripinfo id="veh16" depart="11.00" departLane="-647610982#3_1" departPos="40.36" departSpeed="0.00" departDelay="0.76" arrival="203.00" arrivalLane="984521611#1_0" arrivalPos="22.34" arrivalSpeed="5.51" duration="192.00" routeLength="1337.32" waitingTime="56.00" waitingCount="2" stopTime="0.00" timeLoss="78.84" rerouteNo="0" devices="tripinfo_veh16" vType="passenger" speedFactor="1.01" vaporized=""/>
    <tripinfo id="veh71" depart="46.00" departLane="48778485#0_1" departPos="0.41" departSpeed="0.00" departDelay="0.56" arrival="204.00" arrivalLane="-43544001#14_1" arrivalPos="60.31" arrivalSpeed="10.33" duration="158.00" routeLength="1580.11" waitingTime="0.00" waitingCount="0" stopTime="0.00" timeLoss="18.20" rerouteNo="0" devices="tripinfo_veh71" vType="passenger" speedFactor="0.83" vaporized=""/>
    <tripinfo id="veh64" depart="41.00" departLane="43573478_1" departPos="51.37" departSpeed="0.00" departDelay="0.04" arrival="206.00" arrivalLane="353939570#8_2" arrivalPos="81.94" arrivalSpeed="13.01" duration="165.00" routeLength="1846.95" waitingTime="0.00" waitingCount="0" stopTime="0.00" timeLoss="28.12" rerouteNo="0" devices="tripinfo_veh64" vType="passenger" speedFactor="1.02" vaporized=""/>
    <tripinfo id="veh23" depart="15.00" departLane="1136119743#0_1" departPos="16.92" departSpeed="0.00" departDelay="0.28" arrival="208.00" arrivalLane="-43546105#3_1" arrivalPos="36.33" arrivalSpeed="14.15" duration="193.00" routeLength="2130.02" waitingTime="8.00" waitingCount="1" stopTime="0.00" timeLoss="43.08" rerouteNo="0" devices="tripinfo_veh23" vType="passenger" speedFactor="1.12" vaporized=""/>
    <tripinfo id="veh137" depart="88.00" departLane="-859735387#1_0" departPos="13.83" departSpeed="0.00" departDelay="0.32" arrival="208.00" arrivalLane="1136289987_1" arrivalPos="68.55" arrivalSpeed="7.07" duration="120.00" routeLength="967.80" waitingTime="0.00" waitingCount="0" stopTime="0.00" timeLoss="15.65" rerouteNo="0" devices="tripinfo_veh137" vType="passenger" speedFactor="0.87" vaporized=""/>
    <tripinfo id="veh298" depart="191.00" departLane="-143207979#3_1" departPos="33.12" departSpeed="0.00" departDelay="0.28" arrival="209.00" arrivalLane="-143207979#0_1" arrivalPos="24.79" arrivalSpeed="13.63" duration="18.00" routeLength="156.19" waitingTime="0.00" waitingCount="0" stopTime="0.00" timeLoss="6.16" rerouteNo="0" devices="tripinfo_veh298" vType="passenger" speedFactor="1.00" vaporized=""/>
    <tripinfo id="veh89" depart="57.00" departLane="33913538#5_1" departPos="3.22" departSpeed="0.00" departDelay="0.04" arrival="210.00" arrivalLane="174818018#0_0" arrivalPos="530.36" arrivalSpeed="4.04" duration="153.00" routeLength="770.52" waitingTime="0.00" waitingCount="0" stopTime="0.00" timeLoss="20.91" rerouteNo="0" devices="tripinfo_veh89" vType="passenger" speedFactor="0.87" vaporized=""/>
    <tripinfo id="veh238" depart="153.00" departLane="383582499#3_1" departPos="53.82" departSpeed="0.00" departDelay="0.68" arrival="213.00" arrivalLane="-43546460#1_1" arrivalPos="137.05" arrivalSpeed="14.42" duration="60.00" routeLength="773.89" waitingTime="0.00" waitingCount="0" stopTime="0.00" timeLoss="8.02" rerouteNo="0" devices="tripinfo_veh238" vType="passenger" speedFactor="1.10" vaporized=""/>
    <tripinfo id="veh11" depart="8.00" departLane="-40306162#1_1" departPos="13.27" departSpeed="0.00" departDelay="0.96" arrival="214.00" arrivalLane="43544588#1_1" arrivalPos="38.30" arrivalSpeed="12.59" duration="206.00" routeLength="2356.79" waitingTime="0.00" waitingCount="0" stopTime="0.00" timeLoss="26.26" rerouteNo="0" devices="tripinfo_veh11" vType="delivery" speedFactor="0.97" vaporized=""/>
    <tripinfo id="veh215" depart="138.00" departLane="945794108_1" departPos="5.09" departSpeed="0.00" departDelay="0.40" arrival="216.00" arrivalLane="-48778498#1_1" arrivalPos="23.69" arrivalSpeed="11.34" duration="78.00" routeLength="757.24" waitingTime="0.00" waitingCount="0" stopTime="0.00" timeLoss="15.08" rerouteNo="0" devices="tripinfo_veh215" vType="passenger" speedFactor="0.94" vaporized=""/>
    <tripinfo id="veh22" depart="15.00" departLane="530103975#0_1" departPos="42.11" departSpeed="0.00" departDelay="0.92" arrival="220.00" arrivalLane="-43546105#1_1" arrivalPos="277.53" arrivalSpeed="15.45" duration="205.00" routeLength="2553.00" waitingTime="6.00" waitingCount="1" stopTime="0.00" timeLoss="42.08" rerouteNo="0" devices="tripinfo_veh22" vType="passenger" speedFactor="1.15" vaporized=""/>
    <tripinfo id="veh32" depart="21.00" departLane="40314583#0_1" departPos="66.09" departSpeed="0.00" departDelay="0.52" arrival="223.00" arrivalLane="-43546648#5_1" arrivalPos="18.50" arrivalSpeed="14.26" duration="202.00" routeLength="2126.61" waitingTime="19.00" waitingCount="1" stopTime="0.00" timeLoss="56.02" rerouteNo="0" devices="tripinfo_veh32" vType="passenger" speedFactor="1.07" vaporized=""/>
    <tripinfo id="veh60" depart="39.00" departLane="48736648#0_0" departPos="0.04" departSpeed="0.00" departDelay="0.60" arrival="223.00" arrivalLane="-43573547#6_1" arrivalPos="56.24" arrivalSpeed="13.97" duration="184.00" routeLength="1758.48" waitingTime="31.00" waitingCount="1" stopTime="0.00" timeLoss="57.10" rerouteNo="0" devices="tripinfo_veh60" vType="passenger" speedFactor="1.03" vaporized=""/>
    <tripinfo id="veh190" depart="122.00" departLane="-48778505#2_1" departPos="33.21" departSpeed="0.00" departDelay="0.40" arrival="223.00" arrivalLane="-48778508#3_1" arrivalPos="2.39" arrivalSpeed="14.10" duration="101.00" routeLength="998.03" waitingTime="7.00" waitingCount="1" stopTime="0.00" timeLoss="31.24" rerouteNo="0" devices="tripinfo_veh190" vType="delivery" speedFactor="1.08" vaporized=""/>
    <tripinfo id="veh48" depart="31.00" departLane="383582514_1" departPos="98.77" departSpeed="0.00" departDelay="0.28" arrival="227.00" arrivalLane="-43546449#2_1" arrivalPos="49.54" arrivalSpeed="14.79" duration="196.00" routeLength="2390.06" waitingTime="1.00" waitingCount="1" stopTime="0.00" timeLoss="34.69" rerouteNo="0" devices="tripinfo_veh48" vType="passenger" speedFactor="1.12" vaporized=""/>
    <tripinfo id="veh149" depart="96.00" departLane="-647621858_0" departPos="55.72" departSpeed="0.00" departDelay="0.64" arrival="229.00" arrivalLane="-174818022#0_0" arrivalPos="26.26" arrivalSpeed="5.18" duration="133.00" routeLength="1004.91" waitingTime="0.00" waitingCount="0" stopTime="0.00" timeLoss="20.62" rerouteNo="0" devices="tripinfo_veh149" vType="delivery" speedFactor="0.97" vaporized=""/>
    <tripinfo id="veh4" depart="3.00" departLane="1135856746#2_1" departPos="125.16" departSpeed="0.00" departDelay="0.44" arrival="231.00" arrivalLane="-1205541344_0" arrivalPos="82.96" arrivalSpeed="4.58" duration="228.00" routeLength="2100.21" waitingTime="34.00" waitingCount="2" stopTime="0.00" timeLoss="67.90" rerouteNo="0" devices="tripinfo_veh4" vType="passenger" speedFactor="1.02" vaporized=""/>
    <tripinfo id="veh234" depart="150.00" departLane="48797765#2_1" departPos="0.68" departSpeed="0.00" departDelay="0.24" arrival="234.00" arrivalLane="-250295382_1" arrivalPos="106.55" arrivalSpeed="13.15" duration="84.00" routeLength="593.52" waitingTime="8.00" waitingCount="1" stopTime="0.00" timeLoss="26.19" rerouteNo="0" devices="tripinfo_veh234" vType="passenger" speedFactor="0.97" vaporized=""/>
    <tripinfo id="veh78" depart="50.00" departLane="43545645#0_1" departPos="56.31" departSpeed="0.00" departDelay="0.08" arrival="235.00" arrivalLane="-383582511#0_0" arrivalPos="95.20" arrivalSpeed="2.12" duration="185.00" routeLength="1670.91" waitingTime="0.00" waitingCount="0" stopTime="0.00" timeLoss="41.95" rerouteNo="0" devices="tripinfo_veh78" vType="passenger" speedFactor="1.10" vaporized=""/>
    <tripinfo id="veh26" depart="17.00" departLane="353939574_0" departPos="5.30" departSpeed="0.00" departDelay="0.36" arrival="236.00" arrivalLane="-222605084#5_1" arrivalPos="9.96" arrivalSpeed="4.87" duration="219.00" routeLength="1851.00" waitingTime="0.00" waitingCount="0" stopTime="0.00" timeLoss="38.51" rerouteNo="0" devices="tripinfo_veh26" vType="motorcycle" speedFactor="1.02" vaporized=""/>
    <tripinfo id="veh80" depart="52.00" departLane="-43573547#10_1" departPos="3.26" departSpeed="0.00" departDelay="0.80" arrival="236.00" arrivalLane="-250295513_1" arrivalPos="43.99" arrivalSpeed="13.04" duration="184.00" routeLength="2098.57" waitingTime="0.00" waitingCount="0" stopTime="0.00" timeLoss="25.24" rerouteNo="0" devices="tripinfo_veh80" vType="delivery" speedFactor="0.98" vaporized=""/>
    <tripinfo id="veh13" depart="9.00" departLane="43546935#1_1" departPos="45.57" departSpeed="0.00" departDelay="0.68" arrival="239.00" arrivalLane="40330575#0_1" arrivalPos="31.86" arrivalSpeed="12.56" duration="230.00" routeLength="1743.91" waitingTime="71.00" waitingCount="2" stopTime="0.00" timeLoss="102.87" rerouteNo="0" devices="tripinfo_veh13" vType="passenger" speedFactor="1.02" vaporized=""/>
    <tripinfo id="veh58" depart="38.00" departLane="-222605087#0_1" departPos="20.16" departSpeed="0.00" departDelay="0.88" arrival="240.00" arrivalLane="1135772297_0" arrivalPos="4.72" arrivalSpeed="4.58" duration="202.00" routeLength="1842.58" waitingTime="24.00" waitingCount="1" stopTime="0.00" timeLoss="63.73" rerouteNo="0" devices="tripinfo_veh58" vType="passenger" speedFactor="1.06" vaporized=""/>
    <tripinfo id="veh111" depart="72.00" departLane="-40299264#2_1" departPos="26.59" departSpeed="0.00" departDelay="0.96" arrival="240.00" arrivalLane="-1135854143_1" arrivalPos="57.62" arrivalSpeed="7.67" duration="168.00" routeLength="1249.27" waitingTime="31.00" waitingCount="2" stopTime="0.00" timeLoss="71.52" rerouteNo="0" devices="tripinfo_veh111" vType="passenger" speedFactor="1.01" vaporized=""/>
    <tripinfo id="veh43" depart="28.00" departLane="-48778493#1_1" departPos="10.02" departSpeed="0.00" departDelay="0.48" arrival="242.00" arrivalLane="40236093_1" arrivalPos="79.24" arrivalSpeed="5.55" duration="214.00" routeLength="983.04" waitingTime="33.00" waitingCount="1" stopTime="0.00" timeLoss="52.40" rerouteNo="0" devices="tripinfo_veh43" vType="bicycle" speedFactor="1.10" vaporized=""/>
    <tripinfo id="veh212" depart="136.00" departLane="-258551321_1" departPos="86.08" departSpeed="0.00" departDelay="0.32" arrival="243.00" arrivalLane="40236093_1" arrivalPos="79.24" arrivalSpeed="8.26" duration="107.00" routeLength="724.55" waitingTime="0.00" waitingCount="0" stopTime="0.00" timeLoss="49.23" rerouteNo="0" devices="tripinfo_veh212" vType="passenger" speedFactor="0.96" vaporized=""/>
    <tripinfo id="veh224" depart="144.00" departLane="-994066252#0_0" departPos="4.40" departSpeed="0.00" departDelay="0.64" arrival="243.00" arrivalLane="92198451#1_1" arrivalPos="837.06" arrivalSpeed="13.03" duration="99.00" routeLength="1153.91" waitingTime="0.00" waitingCount="0" stopTime="0.00" timeLoss="7.85" rerouteNo="0" devices="tripinfo_veh224" vType="passenger" speedFactor="0.95" vaporized=""/>