<?xml version="1.0" encoding="UTF-8"?>

<!-- generated on 2025-06-15 21:26:05 by Eclipse SUMO sumo Version 1.22.0
<sumoConfiguration xmlns:xsi="http://www.w3.org/2001/XMLSchema-instance" xsi:noNamespaceSchemaLocation="http://sumo.dlr.de/xsd/sumoConfiguration.xsd">

    <input>
        <net-file value="E:/licenta/oras-mediu/2025-06-05-11-45-23\osm.net.xml"/>
        <route-files value="E:/licenta/oras-mediu/2025-06-05-11-45-23\full.rou.xml,E:/licenta/oras-mediu/2025-06-05-11-45-23\ ped.rou.xml,E:/licenta/oras-mediu/2025-06-05-11-45-23\ truck.rou.xml"/>
        <additional-files value="E:/licenta/oras-mediu/2025-06-05-11-45-23\osm.poly.xml,E:/licenta/oras-mediu/2025-06-05-11-45-23\ vtypes.xml"/>
    </input>

    <output>
        <summary-output value="E:/licenta/oras-mediu/2025-06-05-11-45-23\summary.xml"/>
        <tripinfo-output value="E:/licenta/oras-mediu/2025-06-05-11-45-23\tripinfo.xml"/>
    </output>

    <processing>
        <ignore-route-errors value="true"/>
        <tls.actuated.jam-threshold value="30"/>
    </processing>

    <routing>
        <device.rerouting.adaptation-steps value="18"/>
        <device.rerouting.adaptation-interval value="10"/>
    </routing>

    <report>
        <verbose value="true"/>
        <duration-log.statistics value="true"/>
        <no-step-log value="true"/>
    </report>

    <traci_server>
        <remote-port value="63640"/>
    </traci_server>

    <gui_only>
        <gui-settings-file value="E:/licenta/oras-mediu/2025-06-05-11-45-23\osm.view.xml"/>
    </gui_only>

</sumoConfiguration>
-->

<tripinfos xmlns:xsi="http://www.w3.org/2001/XMLSchema-instance" xsi:noNamespaceSchemaLocation="http://sumo.dlr.de/xsd/tripinfo_file.xsd">
    <tripinfo id="veh50" depart="29.00" departLane="48736612#2_1" departPos="33.77" departSpeed="0.00" departDelay="0.50" arrival="77.00" arrivalLane="48736622#0_1" arrivalPos="0.20" arrivalSpeed="7.34" duration="48.00" routeLength="490.84" waitingTime="0.00" waitingCount="0" stopTime="0.00" timeLoss="9.39" rerouteNo="0" devices="tripinfo_veh50" vType="delivery" speedFactor="0.98" vaporized=""/>
    <tripinfo id="veh91" depart="52.00" departLane="-43546688#1_1" departPos="67.99" departSpeed="0.00" departDelay="0.13" arrival="99.00" arrivalLane="-48736646#0_1" arrivalPos="88.89" arrivalSpeed="11.75" duration="47.00" routeLength="450.27" waitingTime="0.00" waitingCount="0" stopTime="0.00" timeLoss="6.98" rerouteNo="0" devices="tripinfo_veh91" vType="passenger" speedFactor="0.87" vaporized=""/>
    <tripinfo id="veh73" depart="42.00" departLane="-143207982#8_1" departPos="13.30" departSpeed="0.00" departDelay="0.39" arrival="103.00" arrivalLane="-40314583#0_1" arrivalPos="169.56" arrivalSpeed="13.20" duration="61.00" routeLength="583.71" waitingTime="0.00" waitingCount="0" stopTime="0.00" timeLoss="16.40" rerouteNo="0" devices="tripinfo_veh73" vType="passenger" speedFactor="1.01" vaporized=""/>
    <tripinfo id="veh14" depart="8.00" departLane="-222605087#3_1" departPos="29.21" departSpeed="0.00" departDelay="0.02" arrival="105.00" arrivalLane="-40330557#2_1" arrivalPos="99.94" arrivalSpeed="13.25" duration="97.00" routeLength="937.36" waitingTime="0.00" waitingCount="0" stopTime="0.00" timeLoss="13.02" rerouteNo="0" devices="tripinfo_veh14" vType="emergency" speedFactor="1.00" vaporized=""/>
    <tripinfo id="veh124" depart="71.00" departLane="1054663953_0" departPos="7.50" departSpeed="0.00" departDelay="0.32" arrival="120.00" arrivalLane="48736614#1_1" arrivalPos="221.38" arrivalSpeed="12.65" duration="49.00" routeLength="400.86" waitingTime="0.00" waitingCount="0" stopTime="0.00" timeLoss="10.60" rerouteNo="0" devices="tripinfo_veh124" vType="passenger" speedFactor="0.94" vaporized=""/>
    <tripinfo id="veh74" depart="43.00" departLane="383582512#0_0" departPos="23.26" departSpeed="0.00" departDelay="0.82" arrival="126.00" arrivalLane="-48778525#1_1" arrivalPos="14.99" arrivalSpeed="11.90" duration="83.00" routeLength="718.21" waitingTime="0.00" waitingCount="0" stopTime="0.00" timeLoss="17.66" rerouteNo="0" devices="tripinfo_veh74" vType="motorcycle" speedFactor="0.94" vaporized=""/>
    <tripinfo id="veh79" depart="46.00" departLane="43544001#6_1" departPos="0.63" departSpeed="0.00" departDelay="0.97" arrival="126.00" arrivalLane="-647998060#0_1" arrivalPos="61.50" arrivalSpeed="11.49" duration="80.00" routeLength="715.23" waitingTime="2.00" waitingCount="1" stopTime="0.00" timeLoss="19.09" rerouteNo="0" devices="tripinfo_veh79" vType="passenger" speedFactor="0.91" vaporized=""/>
    <tripinfo id="veh23" depart="14.00" departLane="984521611#0_0" departPos="3.47" departSpeed="0.00" departDelay="0.89" arrival="135.00" arrivalLane="647610982#1_1" arrivalPos="73.58" arrivalSpeed="11.77" duration="121.00" routeLength="1211.80" waitingTime="0.00" waitingCount="0" stopTime="0.00" timeLoss="16.09" rerouteNo="0" devices="tripinfo_veh23" vType="passenger" speedFactor="0.89" vaporized=""/>
    <tripinfo id="veh35" depart="20.00" departLane="859734514#0_0" departPos="2.40" departSpeed="0.00" departDelay="0.05" arrival="138.00" arrivalLane="48778497_1" arrivalPos="231.08" arrivalSpeed="13.29" duration="118.00" routeLength="1058.05" waitingTime="0.00" waitingCount="0" stopTime="0.00" timeLoss="26.02" rerouteNo="0" devices="tripinfo_veh35" vType="passenger" speedFactor="1.03" vaporized=""/>
    <tripinfo id="veh123" depart="71.00" departLane="176279225#4_2" departPos="55.73" departSpeed="0.00" departDelay="0.89" arrival="141.00" arrivalLane="48797766#2_1" arrivalPos="182.85" arrivalSpeed="14.12" duration="70.00" routeLength="788.64" waitingTime="0.00" waitingCount="0" stopTime="0.00" timeLoss="12.71" rerouteNo="0" devices="tripinfo_veh123" vType="motorcycle" speedFactor="1.04" vaporized=""/>
    <personinfo id="ped25" depart="125.00" type="DEFAULT_PEDTYPE" speedFactor="0.89" duration="27.00" waitingTime="0.00" timeLoss="4.13" traveltime="27.00">
        <walk depart="125.00" departPos="0.00" arrival="152.00" arrivalPos="16.30" duration="27.00" routeLength="28.41" timeLoss="4.13" maxSpeed="1.24"/>
    </personinfo>
    <personinfo id="ped1" depart="5.00" type="DEFAULT_PEDTYPE" speedFactor="1.20" duration="147.00" waitingTime="0.00" timeLoss="25.89" traveltime="147.00">
        <walk depart="5.00" departPos="0.00" arrival="152.00" arrivalPos="10.65" duration="147.00" routeLength="201.92" timeLoss="25.89" maxSpeed="1.67"/>
    </personinfo>
    <tripinfo id="veh46" depart="27.00" departLane="43547256#1_1" departPos="102.81" departSpeed="0.00" departDelay="0.78" arrival="152.00" arrivalLane="-E12.34_1" arrivalPos="55.77" arrivalSpeed="14.40" duration="125.00" routeLength="1582.11" waitingTime="0.00" waitingCount="0" stopTime="0.00" timeLoss="14.10" rerouteNo="0" devices="tripinfo_veh46" vType="passenger" speedFactor="1.05" vaporized=""/>
    <tripinfo id="veh86" depart="50.00" departLane="-43546688#0_1" departPos="8.52" departSpeed="0.00" departDelay="0.98" arrival="152.00" arrivalLane="-647347140#2_1" arrivalPos="23.54" arrivalSpeed="12.16" duration="102.00" routeLength="1207.00" waitingTime="0.00" waitingCount="0" stopTime="0.00" timeLoss="18.06" rerouteNo="0" devices="tripinfo_veh86" vType="passenger" speedFactor="1.08" vaporized=""/>
    <tripinfo id="veh63" depart="36.00" departLane="-43544001#3_1" departPos="32.71" departSpeed="0.00" departDelay="0.09" arrival="155.00" arrivalLane="-383582512#1_0" arrivalPos="18.95" arrivalSpeed="5.33" duration="119.00" routeLength="1312.81" waitingTime="3.00" waitingCount="1" stopTime="0.00" timeLoss="23.07" rerouteNo="0" devices="tripinfo_veh63" vType="passenger" speedFactor="1.06" vaporized=""/>
    <tripinfo id="veh36" depart="21.00" departLane="354259933#2_1" departPos="35.90" departSpeed="0.00" departDelay="0.48" arrival="156.00" arrivalLane="1136289987_1" arrivalPos="68.55" arrivalSpeed="8.39" duration="135.00" routeLength="1386.87" waitingTime="8.00" waitingCount="1" stopTime="0.00" timeLoss="32.88" rerouteNo="0" devices="tripinfo_veh36" vType="passenger" speedFactor="1.07" vaporized=""/>
    <tripinfo id="veh53" depart="31.00" departLane="-48736646#0_1" departPos="81.66" departSpeed="0.00" departDelay="0.79" arrival="157.00" arrivalLane="-383582514_1" arrivalPos="205.28" arrivalSpeed="8.26" duration="126.00" routeLength="1446.43" waitingTime="0.00" waitingCount="0" stopTime="0.00" timeLoss="20.82" rerouteNo="0" devices="tripinfo_veh53" vType="passenger" speedFactor="1.12" vaporized=""/>
    <tripinfo id="veh90" depart="52.00" departLane="40306162#1_1" departPos="37.62" departSpeed="0.00" departDelay="0.70" arrival="157.00" arrivalLane="48778499#0_1" arrivalPos="44.27" arrivalSpeed="13.77" duration="105.00" routeLength="1100.68" waitingTime="3.00" waitingCount="1" stopTime="0.00" timeLoss="36.40" rerouteNo="0" devices="tripinfo_veh90" vType="passenger" speedFactor="1.25" vaporized=""/>
    <tripinfo id="veh40" depart="23.00" departLane="-43544138#5_1" departPos="36.49" departSpeed="0.00" departDelay="0.20" arrival="158.00" arrivalLane="48778497_1" arrivalPos="231.08" arrivalSpeed="12.52" duration="135.00" routeLength="1426.46" waitingTime="0.00" waitingCount="0" stopTime="0.00" timeLoss="22.97" rerouteNo="0" devices="tripinfo_veh40" vType="passenger" speedFactor="0.95" vaporized=""/>
    <tripinfo id="veh37" depart="22.00" departLane="43544179#11_1" departPos="35.54" departSpeed="0.00" departDelay="0.91" arrival="160.00" arrivalLane="354259933#1_1" arrivalPos="32.06" arrivalSpeed="14.20" duration="138.00" routeLength="1207.50" waitingTime="34.00" waitingCount="1" stopTime="0.00" timeLoss="52.41" rerouteNo="0" devices="tripinfo_veh37" vType="passenger" speedFactor="1.04" vaporized=""/>
    <tripinfo id="veh69" depart="40.00" departLane="1136017144_0" departPos="12.79" departSpeed="0.00" departDelay="0.67" arrival="165.00" arrivalLane="-33913538#5_1" arrivalPos="6.17" arrivalSpeed="13.84" duration="125.00" routeLength="841.41" waitingTime="17.00" waitingCount="2" stopTime="0.00" timeLoss="37.19" rerouteNo="0" devices="tripinfo_veh69" vType="passenger" speedFactor="1.02" vaporized=""/>
    <tripinfo id="veh61" depart="35.00" departLane="-33909936#0_1" departPos="5.56" departSpeed="0.00" departDelay="0.23" arrival="166.00" arrivalLane="-859734514#0_0" arrivalPos="34.75" arrivalSpeed="5.16" duration="131.00" routeLength="1204.95" waitingTime="0.00" waitingCount="0" stopTime="0.00" timeLoss="20.98" rerouteNo="0" devices="tripinfo_veh61" vType="delivery" speedFactor="0.96" vaporized=""/>
    <tripinfo id="veh5" depart="3.00" departLane="470210923#3_1" departPos="24.66" departSpeed="0.00" departDelay="0.15" arrival="167.00" arrivalLane="43544001#7_1" arrivalPos="45.63" arrivalSpeed="14.68" duration="164.00" routeLength="2166.28" waitingTime="0.00" waitingCount="0" stopTime="0.00" timeLoss="18.64" rerouteNo="0" devices="tripinfo_veh5" vType="passenger" speedFactor="1.09" vaporized=""/>
    <tripinfo id="veh26" depart="15.00" departLane="647226814#1_1" departPos="22.92" departSpeed="0.00" departDelay="0.18" arrival="168.00" arrivalLane="-1205541342_1" arrivalPos="22.37" arrivalSpeed="4.82" duration="153.00" routeLength="1655.24" waitingTime="3.00" waitingCount="1" stopTime="0.00" timeLoss="23.09" rerouteNo="0" devices="tripinfo_veh26" vType="passenger" speedFactor="0.99" vaporized=""/>
    <personinfo id="ped8" depart="40.00" type="DEFAULT_PEDTYPE" speedFactor="1.01" duration="129.00" waitingTime="0.00" timeLoss="12.21" traveltime="129.00">
        <walk depart="40.00" departPos="0.00" arrival="169.00" arrivalPos="4.26" duration="129.00" routeLength="163.53" timeLoss="12.21" maxSpeed="1.40"/>
    </personinfo>
    <tripinfo id="veh71" depart="41.00" departLane="222605087#0_1" departPos="5.77" departSpeed="0.00" departDelay="0.53" arrival="170.00" arrivalLane="-222609004#1_1" arrivalPos="58.62" arrivalSpeed="13.13" duration="129.00" routeLength="755.67" waitingTime="15.00" waitingCount="1" stopTime="0.00" timeLoss="39.73" rerouteNo="0" devices="tripinfo_veh71" vType="passenger" speedFactor="0.98" vaporized=""/>
    <tripinfo id="veh149" depart="86.00" departLane="-43544138#6_1" departPos="34.86" departSpeed="0.00" departDelay="1.07" arrival="170.00" arrivalLane="-43573769#1_1" arrivalPos="54.95" arrivalSpeed="13.51" duration="84.00" routeLength="919.57" waitingTime="0.00" waitingCount="0" stopTime="0.00" timeLoss="15.87" rerouteNo="0" devices="tripinfo_veh149" vType="passenger" speedFactor="1.03" vaporized=""/>
    <tripinfo id="veh110" depart="63.00" departLane="-1136301812#1_1" departPos="1.42" departSpeed="0.00" departDelay="0.30" arrival="181.00" arrivalLane="250295380#1_1" arrivalPos="92.88" arrivalSpeed="14.07" duration="118.00" routeLength="1121.07" waitingTime="12.00" waitingCount="1" stopTime="0.00" timeLoss="36.24" rerouteNo="0" devices="tripinfo_veh110" vType="passenger" speedFactor="1.04" vaporized=""/>
    <tripinfo id="veh199" depart="114.00" departLane="43544179#6_1" departPos="13.65" departSpeed="0.00" departDelay="0.57" arrival="181.00" arrivalLane="258551283#1_1" arrivalPos="55.98" arrivalSpeed="13.23" duration="67.00" routeLength="781.81" waitingTime="0.00" waitingCount="0" stopTime="0.00" timeLoss="9.60" rerouteNo="0" devices="tripinfo_veh199" vType="emergency" speedFactor="1.00" vaporized=""/>
    <tripinfo id="veh234" depart="134.00" departLane="48736624#0_1" departPos="92.94" departSpeed="0.00" departDelay="0.62" arrival="182.00" arrivalLane="48736657#1_1" arrivalPos="19.18" arrivalSpeed="12.78" duration="48.00" routeLength="472.00" waitingTime="0.00" waitingCount="0" stopTime="0.00" timeLoss="11.82" rerouteNo="0" devices="tripinfo_veh234" vType="passenger" speedFactor="1.05" vaporized=""/>
    <tripinfo id="veh75" depart="43.00" departLane="1250915720#5_1" departPos="0.06" departSpeed="0.00" departDelay="0.25" arrival="183.00" arrivalLane="-40236220#1_1" arrivalPos="30.08" arrivalSpeed="10.41" duration="140.00" routeLength="1137.50" waitingTime="4.00" waitingCount="1" stopTime="0.00" timeLoss="25.87" rerouteNo="0" devices="tripinfo_veh75" vType="passenger" speedFactor="0.83" vaporized=""/>
    <tripinfo id="veh115" depart="66.00" departLane="-48797767#1_1" departPos="54.42" departSpeed="0.00" departDelay="0.45" arrival="183.00" arrivalLane="-250295383#3_1" arrivalPos="11.99" arrivalSpeed="10.35" duration="117.00" routeLength="908.75" waitingTime="8.00" waitingCount="1" stopTime="0.00" timeLoss="48.28" rerouteNo="0" devices="tripinfo_veh115" vType="passenger" speedFactor="1.06" vaporized=""/>
    <tripinfo id="veh120" depart="69.00" departLane="-40265774#1_1" departPos="33.56" departSpeed="0.00" departDelay="0.60" arrival="183.00" arrivalLane="-43546460#11_1" arrivalPos="10.09" arrivalSpeed="8.72" duration="114.00" routeLength="1337.29" waitingTime="2.00" waitingCount="1" stopTime="0.00" timeLoss="31.17" rerouteNo="0" devices="tripinfo_veh120" vType="passenger" speedFactor="1.21" vaporized=""/>
    <tripinfo id="veh152" depart="87.00" departLane="-40236144#0_1" departPos="63.10" departSpeed="0.00" departDelay="0.36" arrival="186.00" arrivalLane="-48778498#1_1" arrivalPos="23.69" arrivalSpeed="11.49" duration="99.00" routeLength="943.76" waitingTime="0.00" waitingCount="0" stopTime="0.00" timeLoss="20.52" rerouteNo="0" devices="tripinfo_veh152" vType="passenger" speedFactor="0.91" vaporized=""/>
    <tripinfo id="veh245" depart="140.00" departLane="-40334245#1_1" departPos="3.88" departSpeed="0.00" departDelay="0.35" arrival="189.00" arrivalLane="-40334244#3_1" arrivalPos="176.10" arrivalSpeed="15.21" duration="49.00" routeLength="447.84" waitingTime="0.00" waitingCount="0" stopTime="0.00" timeLoss="16.80" rerouteNo="0" devices="tripinfo_veh245" vType="passenger" speedFactor="1.10" vaporized=""/>
    <tripinfo id="veh42" depart="24.00" departLane="383582507_0" departPos="59.27" departSpeed="0.00" departDelay="0.06" arrival="193.00" arrivalLane="92198451#2_1" arrivalPos="98.88" arrivalSpeed="13.70" duration="169.00" routeLength="2202.33" waitingTime="0.00" waitingCount="0" stopTime="0.00" timeLoss="12.56" rerouteNo="0" devices="tripinfo_veh42" vType="passenger" speedFactor="1.06" vaporized=""/>
    <tripinfo id="veh24" depart="14.00" departLane="-48778493#0_1" departPos="1.57" departSpeed="0.00" departDelay="0.32" arrival="194.00" arrivalLane="43546506#1_1" arrivalPos="108.81" arrivalSpeed="15.01" duration="180.00" routeLength="2292.52" waitingTime="9.00" waitingCount="2" stopTime="0.00" timeLoss="35.45" rerouteNo="0" devices="tripinfo_veh24" vType="passenger" speedFactor="1.15" vaporized=""/>
    <tripinfo id="veh66" depart="39.00" departLane="-43573573#0_1" departPos="4.53" departSpeed="0.00" departDelay="1.38" arrival="198.00" arrivalLane="222605084#6_0" arrivalPos="0.20" arrivalSpeed="3.96" duration="159.00" routeLength="1365.27" waitingTime="1.00" waitingCount="1" stopTime="0.00" timeLoss="23.13" rerouteNo="0" devices="tripinfo_veh66" vType="passenger" speedFactor="0.92" vaporized=""/>
    <tripinfo id="veh85" depart="49.00" departLane="E17_2" departPos="24.96" departSpeed="0.00" departDelay="0.55" arrival="200.00" arrivalLane="-992542694_0" arrivalPos="55.17" arrivalSpeed="4.52" duration="151.00" routeLength="1213.57" waitingTime="20.00" waitingCount="1" stopTime="0.00" timeLoss="41.94" rerouteNo="0" devices="tripinfo_veh85" vType="passenger" speedFactor="0.89" vaporized=""/>
    <tripinfo id="veh113" depart="65.00" departLane="-48778473#0_1" departPos="10.07" departSpeed="0.00" departDelay="0.59" arrival="200.00" arrivalLane="43573573#0_1" arrivalPos="20.39" arrivalSpeed="8.98" duration="135.00" routeLength="1509.02" waitingTime="0.00" waitingCount="0" stopTime="0.00" timeLoss="23.07" rerouteNo="0" devices="tripinfo_veh113" vType="emergency" speedFactor="1.00" vaporized=""/>
    <tripinfo id="veh159" depart="91.00" departLane="-48778502#1_1" departPos="163.89" departSpeed="0.00" departDelay="0.37" arrival="200.00" arrivalLane="48778527_1" arrivalPos="56.14" arrivalSpeed="12.73" duration="109.00" routeLength="1204.49" waitingTime="0.00" waitingCount="0" stopTime="0.00" timeLoss="17.61" rerouteNo="0" devices="tripinfo_veh159" vType="passenger" speedFactor="1.00" vaporized=""/>
    <tripinfo id="veh189" depart="108.00" departLane="-43546449#0_1" departPos="18.86" departSpeed="0.00" departDelay="0.27" arrival="202.00" arrivalLane="1136301814#0_1" arrivalPos="40.78" arrivalSpeed="12.18" duration="94.00" routeLength="444.71" waitingTime="38.00" waitingCount="1" stopTime="0.00" timeLoss="56.34" rerouteNo="0" devices="tripinfo_veh189" vType="delivery" speedFactor="0.93" vaporized=""/>
    <tripinfo id="veh221" depart="126.00" departLane="43573547#7_1" departPos="37.35" departSpeed="0.00" departDelay="0.03" arrival="202.00" arrivalLane="996489799#0_0" arrivalPos="0.20" arrivalSpeed="4.49" duration="76.00" routeLength="492.64" waitingTime="19.00" waitingCount="1" stopTime="0.00" timeLoss="38.11" rerouteNo="0" devices="tripinfo_veh221" vType="delivery" speedFactor="0.99" vaporized=""/>
    <tripinfo id="veh87" depart="50.00" departLane="-40330575#1_1" departPos="0.86" departSpeed="0.00" departDelay="0.41" arrival="204.00" arrivalLane="-43547017#1_1" arrivalPos="26.92" arrivalSpeed="13.08" duration="154.00" routeLength="1659.40" waitingTime="7.00" waitingCount="1" stopTime="0.00" timeLoss="35.23" rerouteNo="0" devices="tripinfo_veh87" vType="passenger" speedFactor="1.03" vaporized=""/>
    <tripinfo id="veh194" depart="111.00" departLane="43544179#9_1" departPos="247.57" departSpeed="0.00" departDelay="0.42" arrival="204.00" arrivalLane="-43573547#5_1" arrivalPos="56.54" arrivalSpeed="14.74" duration="93.00" routeLength="1192.10" waitingTime="0.00" waitingCount="0" stopTime="0.00" timeLoss="15.23" rerouteNo="0" devices="tripinfo_veh194" vType="motorcycle" speedFactor="1.14" vaporized=""/>
    <tripinfo id="veh253" depart="145.00" departLane="-48778525#0_1" departPos="35.23" departSpeed="0.00" departDelay="0.79" arrival="205.00" arrivalLane="-43544046_1" arrivalPos="104.31" arrivalSpeed="12.60" duration="60.00" routeLength="525.82" waitingTime="2.00" waitingCount="1" stopTime="0.00" timeLoss="17.37" rerouteNo="0" devices="tripinfo_veh253" vType="motorcycle" speedFactor="0.98" vaporized=""/>
    <personinfo id="ped32" depart="160.00" type="DEFAULT_PEDTYPE" speedFactor="1.20" duration="46.00" waitingTime="0.00" timeLoss="4.67" traveltime="46.00">
        <walk depart="160.00" departPos="0.00" arrival="206.00" arrivalPos="30.16" duration="46.00" routeLength="68.85" timeLoss="4.67" maxSpeed="1.67"/>
    </personinfo>
    <tripinfo id="veh230" depart="132.00" departLane="67736383_1" departPos="36.55" departSpeed="0.00" departDelay="0.90" arrival="206.00" arrivalLane="43546088_1" arrivalPos="225.00" arrivalSpeed="11.76" duration="74.00" routeLength="651.63" waitingTime="2.00" waitingCount="1" stopTime="0.00" timeLoss="17.40" rerouteNo="0" devices="tripinfo_veh230" vType="passenger" speedFactor="0.87" vaporized=""/>
    <tripinfo id="veh104" depart="60.00" departLane="-250295383#3_1" departPos="8.33" departSpeed="0.00" departDelay="0.72" arrival="207.00" arrivalLane="-48736664#0_1" arrivalPos="73.46" arrivalSpeed="13.38" duration="147.00" routeLength="1306.81" waitingTime="24.00" waitingCount="1" stopTime="0.00" timeLoss="51.56" rerouteNo="0" devices="tripinfo_veh104" vType="passenger" speedFactor="1.03" vaporized=""/>
    <personinfo id="ped23" depart="115.00" type="DEFAULT_PEDTYPE" speedFactor="1.17" duration="94.00" waitingTime="0.00" timeLoss="9.02" traveltime="94.00">
        <walk depart="115.00" departPos="0.00" arrival="209.00" arrivalPos="22.07" duration="94.00" routeLength="137.80" timeLoss="9.02" maxSpeed="1.62"/>
    </personinfo>
    <tripinfo id="veh7" depart="4.00" departLane="-40236203#3_1" departPos="58.73" departSpeed="0.00" departDelay="0.01" arrival="211.00" arrivalLane="-647998063#0_1" arrivalPos="301.30" arrivalSpeed="15.41" duration="207.00" routeLength="2778.81" waitingTime="0.00" waitingCount="0" stopTime="0.00" timeLoss="25.37" rerouteNo="0" devices="tripinfo_veh7" vType="passenger" speedFactor="1.12" vaporized=""/>
    <tripinfo id="veh38" depart="22.00" departLane="143207979#2_1" departPos="14.17" departSpeed="0.00" departDelay="0.34" arrival="213.00" arrivalLane="-43546648#1_1" arrivalPos="105.30" arrivalSpeed="12.71" duration="191.00" routeLength="2223.31" waitingTime="0.00" waitingCount="0" stopTime="0.00" timeLoss="25.84" rerouteNo="0" devices="tripinfo_veh38" vType="emergency" speedFactor="1.00" vaporized=""/>
    <tripinfo id="veh138" depart="79.00" departLane="48778485#0_1" departPos="20.51" departSpeed="0.00" departDelay="0.34" arrival="214.00" arrivalLane="-143207979#8_1" arrivalPos="38.62" arrivalSpeed="14.75" duration="135.00" routeLength="1380.83" waitingTime="14.00" waitingCount="1" stopTime="0.00" timeLoss="42.64" rerouteNo="0" devices="tripinfo_veh138" vType="passenger" speedFactor="1.13" vaporized=""/>
    <tripinfo id="veh139" depart="80.00" departLane="-48736665_1" departPos="9.99" departSpeed="0.00" departDelay="0.77" arrival="214.00" arrivalLane="-996984235_0" arrivalPos="15.63" arrivalSpeed="4.47" duration="134.00" routeLength="1215.20" waitingTime="4.00" waitingCount="1" stopTime="0.00" timeLoss="38.06" rerouteNo="0" devices="tripinfo_veh139" vType="passenger" speedFactor="0.98" vaporized=""/>
    <tripinfo id="veh220" depart="126.00" departLane="43546092_1" departPos="83.34" departSpeed="0.00" departDelay="0.60" arrival="215.00" arrivalLane="-43546064#2_1" arrivalPos="102.85" arrivalSpeed="12.33" duration="89.00" routeLength="932.74" waitingTime="0.00" waitingCount="0" stopTime="0.00" timeLoss="15.70" rerouteNo="0" devices="tripinfo_veh220" vType="passenger" speedFactor="0.95" vaporized=""/>
    <tripinfo id="veh240" depart="137.00" departLane="-647762524_1" departPos="46.02" departSpeed="0.00" departDelay="0.20" arrival="215.00" arrivalLane="492965073#7_1" arrivalPos="34.78" arrivalSpeed="12.04" duration="78.00" routeLength="719.63" waitingTime="0.00" waitingCount="0" stopTime="0.00" timeLoss="18.00" rerouteNo="0" devices="tripinfo_veh240" vType="motorcycle" speedFactor="0.94" vaporized=""/>
    <tripinfo id="veh99" depart="57.00" departLane="647741479_1" departPos="34.86" departSpeed="0.00" departDelay="0.57" arrival="216.00" arrivalLane="-40314583#1_1" arrivalPos="68.45" arrivalSpeed="12.57" duration="159.00" routeLength="1633.34" waitingTime="3.00" waitingCount="1" stopTime="0.00" timeLoss="29.02" rerouteNo="0" devices="tripinfo_veh99" vType="motorcycle" speedFactor="0.94" vaporized=""/>
    <tripinfo id="veh60" depart="35.00" departLane="40236153#1_1" departPos="33.79" departSpeed="0.00" departDelay="0.80" arrival="219.00" arrivalLane="-43546460#7_1" arrivalPos="93.76" arrivalSpeed="14.03" duration="184.00" routeLength="2080.30" waitingTime="1.00" waitingCount="1" stopTime="0.00" timeLoss="31.93" rerouteNo="0" devices="tripinfo_veh60" vType="passenger" speedFactor="1.02" vaporized=""/>
    <tripinfo id="veh126" depart="72.00" departLane="-43546688#2_1" departPos="32.33" departSpeed="0.00" departDelay="0.18" arrival="221.00" arrivalLane="-48797770_1" arrivalPos="20.27" arrivalSpeed="10.26" duration="149.00" routeLength="1146.93" waitingTime="20.00" waitingCount="2" stopTime="0.00" timeLoss="53.17" rerouteNo="0" devices="tripinfo_veh126" vType="passenger" speedFactor="0.92" vaporized=""/>
    <tripinfo id="veh67" depart="39.00" departLane="-48736658_1" departPos="54.71" departSpeed="0.00" departDelay="0.81" arrival="222.00" arrivalLane="-649025399_0" arrivalPos="31.36" arrivalSpeed="14.15" duration="183.00" routeLength="2288.53" waitingTime="11.00" waitingCount="1" stopTime="0.00" timeLoss="29.20" rerouteNo="0" devices="tripinfo_veh67" vType="passenger" speedFactor="1.09" vaporized=""/>
    <tripinfo id="veh241" depart="138.00" departLane="-40299283_1" departPos="42.18" departSpeed="0.00" departDelay="0.63" arrival="222.00" arrivalLane="-48736620#6_2" arrivalPos="3.94" arrivalSpeed="12.89" duration="84.00" routeLength="895.31" waitingTime="0.00" waitingCount="0" stopTime="0.00" timeLoss="15.10" rerouteNo="0" devices="tripinfo_veh241" vType="passenger" speedFactor="0.97" vaporized=""/>
    <tripinfo id="veh80" depart="46.00" departLane="43547579#0_1" departPos="104.03" departSpeed="0.00" departDelay="0.40" arrival="223.00" arrivalLane="48736602_1" arrivalPos="229.50" arrivalSpeed="14.89" duration="177.00" routeLength="1898.01" waitingTime="23.00" waitingCount="1" stopTime="0.00" timeLoss="53.05" rerouteNo="0" devices="tripinfo_veh80" vType="passenger" speedFactor="1.14" vaporized=""/>
    <tripinfo id="veh203" depart="120.00" departLane="40236144#3_1" departPos="21.77" departSpeed="0.00" departDelay="4.29" arrival="223.00" arrivalLane="-43573547#3_1" arrivalPos="51.38" arrivalSpeed="11.18" duration="103.00" routeLength="1013.41" waitingTime="0.00" waitingCount="0" stopTime="0.00" timeLoss="13.10" rerouteNo="0" devices="tripinfo_veh203" vType="passenger" speedFactor="0.85" vaporized=""/>
    <tripinfo id="veh6" depart="4.00" departLane="-250295384_1" departPos="67.71" departSpeed="0.00" departDelay="0.58" arrival="224.00" arrivalLane="-43544001#11_1" arrivalPos="49.44" arrivalSpeed="12.15" duration="220.00" routeLength="2343.42" waitingTime="0.00" waitingCount="0" stopTime="0.00" timeLoss="30.27" rerouteNo="0" devices="tripinfo_veh6" vType="passenger" speedFactor="0.92" vaporized=""/>
    <tripinfo id="veh17" depart="10.00" departLane="-43573769#0_1" departPos="24.33" departSpeed="0.00" departDelay="0.31" arrival="224.00" arrivalLane="43546570#0_1" arrivalPos="43.31" arrivalSpeed="12.05" duration="214.00" routeLength="1850.71" waitingTime="32.00" waitingCount="1" stopTime="0.00" timeLoss="59.13" rerouteNo="0" devices="tripinfo_veh17" vType="passenger" speedFactor="0.89" vaporized=""/>
    <tripinfo id="veh173" depart="99.00" departLane="-43546379_1" departPos="79.52" departSpeed="0.00" departDelay="0.39" arrival="225.00" arrivalLane="-40236153#0_1" arrivalPos="39.90" arrivalSpeed="13.85" duration="126.00" routeLength="1326.03" waitingTime="0.00" waitingCount="0" stopTime="0.00" timeLoss="27.65" rerouteNo="0" devices="tripinfo_veh173" vType="delivery" speedFactor="1.03" vaporized=""/>
    <tripinfo id="veh144" depart="83.00" departLane="-353939570#7_1" departPos="4.52" departSpeed="0.00" departDelay="0.92" arrival="230.00" arrivalLane="40266620_1" arrivalPos="32.51" arrivalSpeed="14.18" duration="147.00" routeLength="1169.80" waitingTime="29.00" waitingCount="2" stopTime="0.00" timeLoss="60.10" rerouteNo="0" devices="tripinfo_veh144" vType="motorcycle" speedFactor="1.02" vaporized=""/>
    <tripinfo id="veh206" depart="118.00" departLane="40265775#0_1" departPos="44.40" departSpeed="0.00" departDelay="0.58" arrival="232.00" arrivalLane="-945793485#0_1" arrivalPos="25.01" arrivalSpeed="11.89" duration="114.00" routeLength="1149.89" waitingTime="0.00" waitingCount="0" stopTime="0.00" timeLoss="23.97" rerouteNo="0" devices="tripinfo_veh206" vType="motorcycle" speedFactor="1.04" vaporized=""/>
    <tripinfo id="veh129" depart="74.00" departLane="-250295383#6_1" departPos="25.41" departSpeed="0.00" departDelay="0.47" arrival="236.00" arrivalLane="994066252#1_0" arrivalPos="52.62" arrivalSpeed="4.13" duration="162.00" routeLength="1171.77" waitingTime="37.00" waitingCount="3" stopTime="0.00" timeLoss="66.36" rerouteNo="0" devices="tripinfo_veh129" vType="motorcycle" speedFactor="1.01" vaporized=""/>
    <tripinfo id="veh293" depart="168.00" departLane="48778498#2_1" departPos="27.58" departSpeed="0.00" departDelay="0.99" arrival="237.00" arrivalLane="984505045_0" arrivalPos="60.60" arrivalSpeed="4.97" duration="69.00" routeLength="628.89" waitingTime="1.00" waitingCount="1" stopTime="0.00" timeLoss="15.05" rerouteNo="0" devices="tripinfo_veh293" vType="passenger" speedFactor="1.02" vaporized=""/>