<?xml version="1.0" encoding="UTF-8"?>

<!-- generated on 2025-05-11 08:06:54 by Eclipse SUMO sumo Version 1.22.0
<sumoConfiguration xmlns:xsi="http://www.w3.org/2001/XMLSchema-instance" xsi:noNamespaceSchemaLocation="http://sumo.dlr.de/xsd/sumoConfiguration.xsd">

    <input>
        <net-file value="E:/licenta/oras-mic/2025-05-08-13-35-40/osm.net.xml"/>
        <route-files value="E:/licenta/oras-mic/2025-05-08-13-35-40\generated_routes\routes_worker4_c099ba6b.rou.xml"/>
        <additional-files value="E:/licenta/oras-mic/2025-05-08-13-35-40/osm.poly.xml"/>
    </input>

    <output>
        <summary-output value="E:/licenta/oras-mic/2025-05-08-13-35-40\generated_routes\summary.xml"/>
        <tripinfo-output value="E:/licenta/oras-mic/2025-05-08-13-35-40\generated_routes\tripinfo.xml"/>
    </output>

    <time>
        <step-length value="0.1"/>
    </time>

    <processing>
        <ignore-route-errors value="true"/>
        <tls.actuated.jam-threshold value="30"/>
    </processing>

    <routing>
        <device.rerouting.adaptation-steps value="18"/>
        <device.rerouting.adaptation-interval value="10"/>
    </routing>

    <report>
        <verbose value="false"/>
        <no-warnings value="true"/>
        <duration-log.disable value="true"/>
        <duration-log.statistics value="true"/>
        <no-step-log value="true"/>
    </report>

    <traci_server>
        <remote-port value="59051"/>
    </traci_server>

</sumoConfiguration>
-->

<tripinfos xmlns:xsi="http://www.w3.org/2001/XMLSchema-instance" xsi:noNamespaceSchemaLocation="http://sumo.dlr.de/xsd/tripinfo_file.xsd">
    <tripinfo id="veh5" depart="11.70" departLane="223632517_0" departPos="247.17" departSpeed="14.31" departDelay="0.05" arrival="37.40" arrivalLane="-223632522_0" arrivalPos="84.46" arrivalSpeed="14.26" duration="25.70" routeLength="319.31" waitingTime="0.00" waitingCount="0" stopTime="0.00" timeLoss="3.32" rerouteNo="0" devices="tripinfo_veh5" vType="DEFAULT_VEHTYPE" speedFactor="1.03" vaporized=""/>
    <tripinfo id="veh0" depart="0.00" departLane="223632517_0" departPos="373.31" departSpeed="14.72" departDelay="0.00" arrival="42.30" arrivalLane="649064896#1_0" arrivalPos="201.76" arrivalSpeed="14.71" duration="42.30" routeLength="583.58" waitingTime="0.00" waitingCount="0" stopTime="0.00" timeLoss="1.78" rerouteNo="0" devices="tripinfo_veh0" vType="DEFAULT_VEHTYPE" speedFactor="1.06" vaporized=""/>
    <tripinfo id="veh18" depart="42.00" departLane="649040853#1_0" departPos="11.22" departSpeed="20.59" departDelay="0.06" arrival="43.60" arrivalLane="649040853#1_0" arrivalPos="42.41" arrivalSpeed="20.47" duration="1.60" routeLength="31.19" waitingTime="0.00" waitingCount="0" stopTime="0.00" timeLoss="0.01" rerouteNo="0" devices="tripinfo_veh18" vType="DEFAULT_VEHTYPE" speedFactor="0.93" vaporized=""/>
    <tripinfo id="veh10" depart="23.30" departLane="223632520#0_0" departPos="41.47" departSpeed="11.07" departDelay="0.00" arrival="47.90" arrivalLane="649036317#3_0" arrivalPos="113.32" arrivalSpeed="11.87" duration="24.60" routeLength="258.19" waitingTime="0.00" waitingCount="0" stopTime="0.00" timeLoss="1.94" rerouteNo="0" devices="tripinfo_veh10" vType="DEFAULT_VEHTYPE" speedFactor="0.86" vaporized=""/>
    <tripinfo id="veh21" depart="49.10" departLane="649040853#1_0" departPos="28.99" departSpeed="14.90" departDelay="0.17" arrival="58.10" arrivalLane="-223632522_0" arrivalPos="84.46" arrivalSpeed="12.96" duration="9.00" routeLength="109.16" waitingTime="0.00" waitingCount="0" stopTime="0.00" timeLoss="0.66" rerouteNo="0" devices="tripinfo_veh21" vType="DEFAULT_VEHTYPE" speedFactor="0.94" vaporized=""/>
    <tripinfo id="veh7" depart="16.40" departLane="258728090#4_0" departPos="66.68" departSpeed="14.53" departDelay="0.09" arrival="73.30" arrivalLane="E3_0" arrivalPos="63.66" arrivalSpeed="14.50" duration="56.90" routeLength="670.52" waitingTime="2.40" waitingCount="1" stopTime="0.00" timeLoss="8.83" rerouteNo="0" devices="tripinfo_veh7" vType="DEFAULT_VEHTYPE" speedFactor="1.05" vaporized=""/>
    <tripinfo id="veh2" depart="4.70" departLane="223632520#1_0" departPos="4.14" departSpeed="14.03" departDelay="0.04" arrival="75.80" arrivalLane="-223632525#0_0" arrivalPos="198.61" arrivalSpeed="13.92" duration="71.10" routeLength="921.31" waitingTime="0.00" waitingCount="0" stopTime="0.00" timeLoss="3.61" rerouteNo="0" devices="tripinfo_veh2" vType="DEFAULT_VEHTYPE" speedFactor="1.01" vaporized=""/>
    <tripinfo id="veh11" depart="25.70" departLane="258728090#3_0" departPos="1.64" departSpeed="15.15" departDelay="0.07" arrival="80.40" arrivalLane="-223632520#0_0" arrivalPos="55.66" arrivalSpeed="15.13" duration="54.70" routeLength="772.24" waitingTime="0.00" waitingCount="0" stopTime="0.00" timeLoss="2.18" rerouteNo="0" devices="tripinfo_veh11" vType="DEFAULT_VEHTYPE" speedFactor="1.09" vaporized=""/>
    <tripinfo id="veh35" depart="81.60" departLane="-649064895_0" departPos="45.29" departSpeed="16.37" departDelay="0.05" arrival="96.80" arrivalLane="-649064895_0" arrivalPos="150.09" arrivalSpeed="9.16" duration="15.20" routeLength="104.80" waitingTime="0.00" waitingCount="0" stopTime="0.00" timeLoss="8.80" rerouteNo="0" devices="tripinfo_veh35" vType="DEFAULT_VEHTYPE" speedFactor="1.18" vaporized=""/>
    <tripinfo id="veh22" depart="51.30" departLane="-649040853#1_0" departPos="1.94" departSpeed="25.74" departDelay="0.04" arrival="100.70" arrivalLane="-223632520#1_0" arrivalPos="93.36" arrivalSpeed="16.00" duration="49.40" routeLength="504.34" waitingTime="12.50" waitingCount="1" stopTime="0.00" timeLoss="18.87" rerouteNo="0" devices="tripinfo_veh22" vType="DEFAULT_VEHTYPE" speedFactor="1.16" vaporized=""/>
    <tripinfo id="veh8" depart="18.70" departLane="223632517_0" departPos="103.70" departSpeed="12.31" departDelay="0.06" arrival="102.40" arrivalLane="649040853#2_0" arrivalPos="953.89" arrivalSpeed="19.67" duration="83.70" routeLength="1334.90" waitingTime="0.00" waitingCount="0" stopTime="0.00" timeLoss="4.68" rerouteNo="0" devices="tripinfo_veh8" vType="DEFAULT_VEHTYPE" speedFactor="0.89" vaporized=""/>
    <tripinfo id="veh24" depart="56.00" departLane="223632520#0_0" departPos="17.09" departSpeed="14.03" departDelay="0.08" arrival="104.80" arrivalLane="649036317#3_0" arrivalPos="113.32" arrivalSpeed="13.93" duration="48.80" routeLength="282.57" waitingTime="15.10" waitingCount="1" stopTime="0.00" timeLoss="27.85" rerouteNo="0" devices="tripinfo_veh24" vType="DEFAULT_VEHTYPE" speedFactor="1.01" vaporized=""/>
    <tripinfo id="veh23" depart="53.60" departLane="-649036317#3_0" departPos="58.06" departSpeed="14.14" departDelay="0.01" arrival="109.30" arrivalLane="E4_0" arrivalPos="127.56" arrivalSpeed="14.12" duration="55.70" routeLength="712.24" waitingTime="0.00" waitingCount="0" stopTime="0.00" timeLoss="3.69" rerouteNo="0" devices="tripinfo_veh23" vType="DEFAULT_VEHTYPE" speedFactor="1.02" vaporized=""/>
    <tripinfo id="veh41" depart="95.60" departLane="223632525#0_0" departPos="65.75" departSpeed="14.16" departDelay="0.07" arrival="110.60" arrivalLane="-223632520#0_0" arrivalPos="55.66" arrivalSpeed="14.12" duration="15.00" routeLength="210.18" waitingTime="0.00" waitingCount="0" stopTime="0.00" timeLoss="0.07" rerouteNo="0" devices="tripinfo_veh41" vType="DEFAULT_VEHTYPE" speedFactor="1.02" vaporized=""/>
    <tripinfo id="veh15" depart="35.00" departLane="258728090#1_0" departPos="200.38" departSpeed="15.60" departDelay="0.05" arrival="112.10" arrivalLane="-223632525#0_0" arrivalPos="198.61" arrivalSpeed="15.57" duration="77.10" routeLength="1182.65" waitingTime="0.00" waitingCount="0" stopTime="0.00" timeLoss="0.79" rerouteNo="0" devices="tripinfo_veh15" vType="DEFAULT_VEHTYPE" speedFactor="1.12" vaporized=""/>
    <tripinfo id="veh34" depart="79.30" departLane="-649040853#1_0" departPos="1.36" departSpeed="20.69" departDelay="0.08" arrival="112.20" arrivalLane="-649064895_0" arrivalPos="150.09" arrivalSpeed="12.87" duration="32.90" routeLength="360.21" waitingTime="1.30" waitingCount="1" stopTime="0.00" timeLoss="6.35" rerouteNo="0" devices="tripinfo_veh34" vType="DEFAULT_VEHTYPE" speedFactor="0.93" vaporized=""/>
    <tripinfo id="veh25" depart="58.30" departLane="E1_0" departPos="179.96" departSpeed="13.54" departDelay="0.05" arrival="112.70" arrivalLane="649036317#3_0" arrivalPos="113.32" arrivalSpeed="13.54" duration="54.40" routeLength="662.94" waitingTime="0.00" waitingCount="0" stopTime="0.00" timeLoss="3.57" rerouteNo="0" devices="tripinfo_veh25" vType="DEFAULT_VEHTYPE" speedFactor="0.97" vaporized=""/>
    <tripinfo id="veh30" depart="69.90" departLane="223632520#0_0" departPos="22.07" departSpeed="11.60" departDelay="0.00" arrival="116.00" arrivalLane="-258728090#4_0" arrivalPos="89.71" arrivalSpeed="12.62" duration="46.10" routeLength="463.54" waitingTime="0.00" waitingCount="0" stopTime="0.00" timeLoss="8.20" rerouteNo="0" devices="tripinfo_veh30" vType="DEFAULT_VEHTYPE" speedFactor="0.92" vaporized=""/>
    <tripinfo id="veh26" depart="60.60" departLane="258728090#1_0" departPos="416.20" departSpeed="12.36" departDelay="0.02" arrival="140.20" arrivalLane="-223632525#0_0" arrivalPos="198.61" arrivalSpeed="12.29" duration="79.60" routeLength="966.83" waitingTime="0.00" waitingCount="0" stopTime="0.00" timeLoss="0.79" rerouteNo="0" devices="tripinfo_veh26" vType="DEFAULT_VEHTYPE" speedFactor="0.89" vaporized=""/>
    <tripinfo id="veh32" depart="74.60" departLane="-649064895_0" departPos="35.53" departSpeed="15.72" departDelay="0.04" arrival="141.50" arrivalLane="-E1_0" arrivalPos="283.45" arrivalSpeed="3.91" duration="66.90" routeLength="652.85" waitingTime="4.20" waitingCount="1" stopTime="0.00" timeLoss="24.27" rerouteNo="0" devices="tripinfo_veh32" vType="DEFAULT_VEHTYPE" speedFactor="1.13" vaporized=""/>
    <tripinfo id="veh36" depart="84.00" departLane="223632520#1_0" departPos="14.47" departSpeed="13.24" departDelay="0.12" arrival="141.80" arrivalLane="223632520#2_0" arrivalPos="265.36" arrivalSpeed="9.32" duration="57.80" routeLength="357.06" waitingTime="7.10" waitingCount="1" stopTime="0.00" timeLoss="35.51" rerouteNo="0" devices="tripinfo_veh36" vType="DEFAULT_VEHTYPE" speedFactor="1.15" vaporized=""/>
    <tripinfo id="veh48" depart="111.90" departLane="223632517_0" departPos="70.37" departSpeed="15.17" departDelay="0.06" arrival="148.20" arrivalLane="-223632522_0" arrivalPos="84.46" arrivalSpeed="15.07" duration="36.30" routeLength="496.11" waitingTime="0.00" waitingCount="0" stopTime="0.00" timeLoss="3.54" rerouteNo="0" devices="tripinfo_veh48" vType="DEFAULT_VEHTYPE" speedFactor="1.09" vaporized=""/>
    <tripinfo id="veh1" depart="2.40" departLane="223632520#2_0" departPos="189.07" departSpeed="13.03" departDelay="0.07" arrival="148.40" arrivalLane="-258728090#2_0" arrivalPos="442.46" arrivalSpeed="13.00" duration="146.00" routeLength="987.89" waitingTime="54.40" waitingCount="2" stopTime="0.00" timeLoss="67.97" rerouteNo="0" devices="tripinfo_veh1" vType="DEFAULT_VEHTYPE" speedFactor="0.94" vaporized=""/>
    <tripinfo id="veh17" depart="39.70" departLane="-649036317#3_0" departPos="64.10" departSpeed="13.77" departDelay="0.09" arrival="151.70" arrivalLane="-E1_0" arrivalPos="283.45" arrivalSpeed="13.65" duration="112.00" routeLength="790.69" waitingTime="39.40" waitingCount="3" stopTime="0.00" timeLoss="52.58" rerouteNo="0" devices="tripinfo_veh17" vType="DEFAULT_VEHTYPE" speedFactor="0.99" vaporized=""/>
    <tripinfo id="veh12" depart="28.00" departLane="-258728090#2_0" departPos="297.78" departSpeed="14.26" departDelay="0.04" arrival="152.50" arrivalLane="-258728090#4_0" arrivalPos="89.71" arrivalSpeed="14.17" duration="124.50" routeLength="1342.07" waitingTime="17.60" waitingCount="1" stopTime="0.00" timeLoss="27.56" rerouteNo="0" devices="tripinfo_veh12" vType="DEFAULT_VEHTYPE" speedFactor="1.03" vaporized=""/>
    <tripinfo id="veh60" depart="139.80" departLane="223632525#0_0" departPos="33.42" departSpeed="13.93" departDelay="0.00" arrival="157.40" arrivalLane="-223632520#0_0" arrivalPos="55.66" arrivalSpeed="13.83" duration="17.60" routeLength="242.51" waitingTime="0.00" waitingCount="0" stopTime="0.00" timeLoss="0.08" rerouteNo="0" devices="tripinfo_veh60" vType="DEFAULT_VEHTYPE" speedFactor="1.00" vaporized=""/>
    <tripinfo id="veh31" depart="72.30" departLane="E4_0" departPos="69.43" departSpeed="13.18" departDelay="0.07" arrival="159.20" arrivalLane="649064896#1_0" arrivalPos="201.76" arrivalSpeed="13.06" duration="86.90" routeLength="774.55" waitingTime="11.10" waitingCount="1" stopTime="0.00" timeLoss="24.78" rerouteNo="0" devices="tripinfo_veh31" vType="DEFAULT_VEHTYPE" speedFactor="0.95" vaporized=""/>
    <tripinfo id="veh27" depart="63.00" departLane="223632525#0_0" departPos="163.60" departSpeed="11.47" departDelay="0.09" arrival="161.00" arrivalLane="649040853#1_0" arrivalPos="42.41" arrivalSpeed="18.07" duration="98.00" routeLength="561.19" waitingTime="22.00" waitingCount="3" stopTime="0.00" timeLoss="49.16" rerouteNo="0" devices="tripinfo_veh27" vType="DEFAULT_VEHTYPE" speedFactor="0.83" vaporized=""/>
    <tripinfo id="veh47" depart="109.60" departLane="E1_0" departPos="63.39" departSpeed="13.29" departDelay="0.09" arrival="161.40" arrivalLane="-223632520#0_0" arrivalPos="55.66" arrivalSpeed="13.26" duration="51.80" routeLength="610.47" waitingTime="0.00" waitingCount="0" stopTime="0.00" timeLoss="3.50" rerouteNo="0" devices="tripinfo_veh47" vType="DEFAULT_VEHTYPE" speedFactor="0.96" vaporized=""/>
    <tripinfo id="veh37" depart="86.30" departLane="223632520#0_0" departPos="53.24" departSpeed="4.44" departDelay="0.09" arrival="162.80" arrivalLane="-223632520#1_0" arrivalPos="93.36" arrivalSpeed="13.93" duration="76.50" routeLength="733.02" waitingTime="9.40" waitingCount="1" stopTime="0.00" timeLoss="21.15" rerouteNo="0" devices="tripinfo_veh37" vType="DEFAULT_VEHTYPE" speedFactor="1.01" vaporized=""/>
    <tripinfo id="veh6" depart="14.00" departLane="223632520#0_0" departPos="2.43" departSpeed="11.54" departDelay="0.02" arrival="165.40" arrivalLane="223632526_0" arrivalPos="158.15" arrivalSpeed="11.48" duration="151.40" routeLength="1677.86" waitingTime="0.00" waitingCount="0" stopTime="0.00" timeLoss="4.18" rerouteNo="0" devices="tripinfo_veh6" vType="DEFAULT_VEHTYPE" speedFactor="0.83" vaporized=""/>
    <tripinfo id="veh43" depart="100.20" departLane="-649064895_0" departPos="18.82" departSpeed="16.39" departDelay="0.01" arrival="167.40" arrivalLane="223632520#2_0" arrivalPos="265.36" arrivalSpeed="11.15" duration="67.20" routeLength="943.96" waitingTime="0.00" waitingCount="0" stopTime="0.00" timeLoss="7.80" rerouteNo="0" devices="tripinfo_veh43" vType="DEFAULT_VEHTYPE" speedFactor="1.18" vaporized=""/>
    <tripinfo id="veh19" depart="44.30" departLane="-649036317#3_0" departPos="6.82" departSpeed="12.20" departDelay="0.03" arrival="183.50" arrivalLane="223632526_0" arrivalPos="158.15" arrivalSpeed="12.16" duration="139.20" routeLength="1614.09" waitingTime="0.00" waitingCount="0" stopTime="0.00" timeLoss="4.27" rerouteNo="0" devices="tripinfo_veh19" vType="DEFAULT_VEHTYPE" speedFactor="0.88" vaporized=""/>
    <tripinfo id="veh20" depart="46.60" departLane="223632520#0_0" departPos="48.73" departSpeed="7.67" departDelay="0.00" arrival="187.20" arrivalLane="-E3_0" arrivalPos="63.66" arrivalSpeed="13.03" duration="140.60" routeLength="1695.31" waitingTime="2.10" waitingCount="1" stopTime="0.00" timeLoss="8.58" rerouteNo="0" devices="tripinfo_veh20" vType="DEFAULT_VEHTYPE" speedFactor="0.94" vaporized=""/>
    <tripinfo id="veh51" depart="118.90" departLane="-649036317#3_0" departPos="91.88" departSpeed="7.44" departDelay="0.07" arrival="194.20" arrivalLane="-E1_0" arrivalPos="283.45" arrivalSpeed="15.01" duration="75.30" routeLength="762.91" waitingTime="10.60" waitingCount="1" stopTime="0.00" timeLoss="23.03" rerouteNo="0" devices="tripinfo_veh51" vType="DEFAULT_VEHTYPE" speedFactor="1.09" vaporized=""/>
    <tripinfo id="veh3" depart="7.00" departLane="-144943776_0" departPos="470.14" departSpeed="24.06" departDelay="0.01" arrival="198.70" arrivalLane="649040853#2_0" arrivalPos="953.89" arrivalSpeed="24.00" duration="191.70" routeLength="2193.65" waitingTime="69.60" waitingCount="2" stopTime="0.00" timeLoss="83.75" rerouteNo="0" devices="tripinfo_veh3" vType="DEFAULT_VEHTYPE" speedFactor="1.08" vaporized=""/>
    <tripinfo id="veh46" depart="107.20" departLane="-671642282_0" departPos="71.26" departSpeed="14.31" departDelay="0.02" arrival="203.40" arrivalLane="258728090#4_0" arrivalPos="89.71" arrivalSpeed="14.27" duration="96.20" routeLength="1326.15" waitingTime="0.00" waitingCount="0" stopTime="0.00" timeLoss="3.10" rerouteNo="0" devices="tripinfo_veh46" vType="DEFAULT_VEHTYPE" speedFactor="1.03" vaporized=""/>
    <tripinfo id="veh64" depart="149.20" departLane="-649064896#1_0" departPos="130.45" departSpeed="15.87" departDelay="0.08" arrival="203.50" arrivalLane="-E4_0" arrivalPos="126.33" arrivalSpeed="15.80" duration="54.30" routeLength="696.26" waitingTime="0.00" waitingCount="0" stopTime="0.00" timeLoss="7.91" rerouteNo="0" devices="tripinfo_veh64" vType="DEFAULT_VEHTYPE" speedFactor="1.14" vaporized=""/>
    <tripinfo id="veh65" depart="151.50" departLane="-649036317#3_0" departPos="17.19" departSpeed="14.22" departDelay="0.05" arrival="205.10" arrivalLane="-223632525#2_0" arrivalPos="306.58" arrivalSpeed="14.14" duration="53.60" routeLength="711.64" waitingTime="0.00" waitingCount="0" stopTime="0.00" timeLoss="2.52" rerouteNo="0" devices="tripinfo_veh65" vType="DEFAULT_VEHTYPE" speedFactor="1.02" vaporized=""/>
    <tripinfo id="veh54" depart="125.90" departLane="-E1_0" departPos="202.83" departSpeed="12.18" departDelay="0.08" arrival="211.50" arrivalLane="-E4_0" arrivalPos="126.33" arrivalSpeed="12.15" duration="85.60" routeLength="777.49" waitingTime="6.10" waitingCount="4" stopTime="0.00" timeLoss="20.24" rerouteNo="0" devices="tripinfo_veh54" vType="DEFAULT_VEHTYPE" speedFactor="0.88" vaporized=""/>
    <tripinfo id="veh29" depart="67.60" departLane="223632520#0_0" departPos="49.41" departSpeed="7.28" departDelay="0.03" arrival="212.70" arrivalLane="649040853#2_0" arrivalPos="953.89" arrivalSpeed="19.38" duration="145.10" routeLength="1507.31" waitingTime="15.40" waitingCount="3" stopTime="0.00" timeLoss="51.88" rerouteNo="0" devices="tripinfo_veh29" vType="DEFAULT_VEHTYPE" speedFactor="0.87" vaporized=""/>
    <tripinfo id="veh14" depart="32.70" departLane="223632520#0_0" departPos="25.95" departSpeed="14.54" departDelay="0.08" arrival="217.70" arrivalLane="E4_0" arrivalPos="127.56" arrivalSpeed="5.23" duration="185.00" routeLength="803.73" waitingTime="100.20" waitingCount="4" stopTime="0.00" timeLoss="128.86" rerouteNo="0" devices="tripinfo_veh14" vType="DEFAULT_VEHTYPE" speedFactor="1.05" vaporized=""/>
    <tripinfo id="veh59" depart="137.50" departLane="-144943776_0" departPos="554.92" departSpeed="24.35" departDelay="0.03" arrival="219.10" arrivalLane="E2_0" arrivalPos="75.64" arrivalSpeed="15.09" duration="81.60" routeLength="1005.71" waitingTime="16.30" waitingCount="1" stopTime="0.00" timeLoss="25.91" rerouteNo="0" devices="tripinfo_veh59" vType="DEFAULT_VEHTYPE" speedFactor="1.10" vaporized=""/>
    <tripinfo id="veh44" depart="102.60" departLane="258728090#3_0" departPos="111.89" departSpeed="15.31" departDelay="0.08" arrival="221.80" arrivalLane="223632526_0" arrivalPos="158.15" arrivalSpeed="15.23" duration="119.20" routeLength="1687.14" waitingTime="0.00" waitingCount="0" stopTime="0.00" timeLoss="6.81" rerouteNo="0" devices="tripinfo_veh44" vType="DEFAULT_VEHTYPE" speedFactor="1.10" vaporized=""/>
    <tripinfo id="veh9" depart="21.00" departLane="-671642282_0" departPos="147.14" departSpeed="13.03" departDelay="0.03" arrival="222.20" arrivalLane="-223632517_0" arrivalPos="414.94" arrivalSpeed="12.98" duration="201.20" routeLength="1814.08" waitingTime="48.20" waitingCount="2" stopTime="0.00" timeLoss="60.28" rerouteNo="0" devices="tripinfo_veh9" vType="DEFAULT_VEHTYPE" speedFactor="0.94" vaporized=""/>
    <tripinfo id="veh69" depart="160.80" departLane="-223632525#2_0" departPos="284.54" departSpeed="14.11" departDelay="0.03" arrival="223.50" arrivalLane="-258728090#4_0" arrivalPos="89.71" arrivalSpeed="7.37" duration="62.70" routeLength="539.03" waitingTime="6.00" waitingCount="1" stopTime="0.00" timeLoss="22.83" rerouteNo="0" devices="tripinfo_veh69" vType="DEFAULT_VEHTYPE" speedFactor="1.02" vaporized=""/>
    <tripinfo id="veh38" depart="88.60" departLane="-144943776_0" departPos="28.53" departSpeed="26.04" departDelay="0.06" arrival="224.80" arrivalLane="258728090#4_0" arrivalPos="89.71" arrivalSpeed="16.25" duration="136.20" routeLength="1545.72" waitingTime="51.30" waitingCount="2" stopTime="0.00" timeLoss="63.55" rerouteNo="0" devices="tripinfo_veh38" vType="DEFAULT_VEHTYPE" speedFactor="1.17" vaporized=""/>
    <tripinfo id="veh45" depart="104.90" departLane="-649036317#3_0" departPos="109.18" departSpeed="5.79" departDelay="0.05" arrival="228.40" arrivalLane="-649064896#1_0" arrivalPos="203.30" arrivalSpeed="5.68" duration="123.50" routeLength="919.57" waitingTime="33.70" waitingCount="2" stopTime="0.00" timeLoss="47.66" rerouteNo="0" devices="tripinfo_veh45" vType="DEFAULT_VEHTYPE" speedFactor="0.90" vaporized=""/>
    <tripinfo id="veh82" depart="191.10" departLane="-258728090#4_0" departPos="16.21" departSpeed="13.51" departDelay="0.04" arrival="228.80" arrivalLane="258728090#4_0" arrivalPos="89.71" arrivalSpeed="13.50" duration="37.70" routeLength="167.88" waitingTime="18.10" waitingCount="1" stopTime="0.00" timeLoss="24.31" rerouteNo="0" devices="tripinfo_veh82" vType="DEFAULT_VEHTYPE" speedFactor="0.97" vaporized=""/>
    <tripinfo id="veh85" depart="198.10" departLane="258728090#1_0" departPos="319.95" departSpeed="13.27" departDelay="0.05" arrival="230.30" arrivalLane="-649064896#1_0" arrivalPos="203.30" arrivalSpeed="7.76" duration="32.20" routeLength="339.39" waitingTime="0.00" waitingCount="0" stopTime="0.00" timeLoss="6.22" rerouteNo="0" devices="tripinfo_veh85" vType="DEFAULT_VEHTYPE" speedFactor="0.96" vaporized=""/>
    <tripinfo id="veh42" depart="97.90" departLane="-144943776_0" departPos="123.77" departSpeed="21.62" departDelay="0.04" arrival="232.50" arrivalLane="223632526_0" arrivalPos="158.15" arrivalSpeed="13.43" duration="134.60" routeLength="2039.96" waitingTime="0.00" waitingCount="0" stopTime="0.00" timeLoss="5.62" rerouteNo="0" devices="tripinfo_veh42" vType="DEFAULT_VEHTYPE" speedFactor="0.97" vaporized=""/>
    <tripinfo id="veh53" depart="123.50" departLane="258728090#0_0" departPos="183.35" departSpeed="12.51" departDelay="0.01" arrival="241.10" arrivalLane="649064895_0" arrivalPos="149.19" arrivalSpeed="12.47" duration="117.60" routeLength="923.07" waitingTime="37.90" waitingCount="1" stopTime="0.00" timeLoss="42.46" rerouteNo="0" devices="tripinfo_veh53" vType="DEFAULT_VEHTYPE" speedFactor="0.90" vaporized=""/>
    <tripinfo id="veh61" depart="142.20" departLane="-258728090#4_0" departPos="85.66" departSpeed="5.81" departDelay="0.07" arrival="243.40" arrivalLane="E3_0" arrivalPos="63.66" arrivalSpeed="5.67" duration="101.20" routeLength="463.50" waitingTime="53.90" waitingCount="2" stopTime="0.00" timeLoss="67.43" rerouteNo="0" devices="tripinfo_veh61" vType="DEFAULT_VEHTYPE" speedFactor="1.00" vaporized=""/>
    <tripinfo id="veh58" depart="135.20" departLane="223632520#1_0" departPos="44.79" departSpeed="14.12" departDelay="0.06" arrival="246.10" arrivalLane="-223632525#0_0" arrivalPos="198.61" arrivalSpeed="14.12" duration="110.90" routeLength="880.66" waitingTime="39.90" waitingCount="1" stopTime="0.00" timeLoss="46.77" rerouteNo="0" devices="tripinfo_veh58" vType="DEFAULT_VEHTYPE" speedFactor="1.02" vaporized=""/>
    <tripinfo id="veh87" depart="202.80" departLane="-223632517_0" departPos="120.35" departSpeed="14.34" departDelay="0.09" arrival="246.10" arrivalLane="-258728090#0_0" arrivalPos="274.43" arrivalSpeed="14.30" duration="43.30" routeLength="583.29" waitingTime="0.00" waitingCount="0" stopTime="0.00" timeLoss="1.95" rerouteNo="0" devices="tripinfo_veh87" vType="DEFAULT_VEHTYPE" speedFactor="1.03" vaporized=""/>
    <tripinfo id="veh49" depart="114.20" departLane="258728090#4_0" departPos="51.28" departSpeed="14.38" departDelay="0.03" arrival="247.30" arrivalLane="-258728090#2_0" arrivalPos="442.46" arrivalSpeed="14.40" duration="133.10" routeLength="1519.06" waitingTime="0.00" waitingCount="0" stopTime="0.00" timeLoss="23.96" rerouteNo="0" devices="tripinfo_veh49" vType="DEFAULT_VEHTYPE" speedFactor="1.04" vaporized=""/>
    <tripinfo id="veh84" depart="195.80" departLane="258728090#3_0" departPos="21.76" departSpeed="14.66" departDelay="0.08" arrival="251.10" arrivalLane="223632520#1_0" arrivalPos="90.94" arrivalSpeed="14.54" duration="55.30" routeLength="793.35" waitingTime="0.00" waitingCount="0" stopTime="0.00" timeLoss="0.70" rerouteNo="0" devices="tripinfo_veh84" vType="DEFAULT_VEHTYPE" speedFactor="1.06" vaporized=""/>
    <tripinfo id="veh79" depart="184.10" departLane="223632525#1_0" departPos="176.38" departSpeed="14.20" departDelay="0.03" arrival="253.60" arrivalLane="-223632525#0_0" arrivalPos="198.61" arrivalSpeed="14.14" duration="69.50" routeLength="753.27" waitingTime="5.60" waitingCount="1" stopTime="0.00" timeLoss="13.63" rerouteNo="0" devices="tripinfo_veh79" vType="DEFAULT_VEHTYPE" speedFactor="1.02" vaporized=""/>
    <tripinfo id="veh55" depart="128.20" departLane="-223632526_0" departPos="96.17" departSpeed="11.81" departDelay="0.05" arrival="264.10" arrivalLane="E2_0" arrivalPos="75.64" arrivalSpeed="11.78" duration="135.90" routeLength="1521.77" waitingTime="0.00" waitingCount="0" stopTime="0.00" timeLoss="5.13" rerouteNo="0" devices="tripinfo_veh55" vType="DEFAULT_VEHTYPE" speedFactor="0.85" vaporized=""/>
    <tripinfo id="veh94" depart="219.10" departLane="-649036317#3_0" departPos="58.05" departSpeed="14.12" departDelay="0.08" arrival="265.00" arrivalLane="-223632522_0" arrivalPos="84.46" arrivalSpeed="14.12" duration="45.90" routeLength="567.17" waitingTime="0.40" waitingCount="1" stopTime="0.00" timeLoss="5.99" rerouteNo="0" devices="tripinfo_veh94" vType="DEFAULT_VEHTYPE" speedFactor="1.02" vaporized=""/>
    <tripinfo id="veh50" depart="116.50" departLane="-223632520#2_0" departPos="64.23" departSpeed="14.49" departDelay="0.00" arrival="267.10" arrivalLane="223632526_0" arrivalPos="158.15" arrivalSpeed="14.45" duration="150.60" routeLength="2074.88" waitingTime="0.00" waitingCount="0" stopTime="0.00" timeLoss="5.06" rerouteNo="0" devices="tripinfo_veh50" vType="DEFAULT_VEHTYPE" speedFactor="1.04" vaporized=""/>
    <tripinfo id="veh77" depart="179.50" departLane="-144943776_0" departPos="324.31" departSpeed="19.43" departDelay="0.09" arrival="277.70" arrivalLane="-258728090#0_0" arrivalPos="274.43" arrivalSpeed="12.66" duration="98.20" routeLength="1407.79" waitingTime="0.00" waitingCount="0" stopTime="0.00" timeLoss="5.45" rerouteNo="0" devices="tripinfo_veh77" vType="DEFAULT_VEHTYPE" speedFactor="0.91" vaporized=""/>
    <tripinfo id="veh102" depart="237.70" departLane="E4_0" departPos="3.04" departSpeed="13.91" departDelay="0.04" arrival="287.50" arrivalLane="-223632520#0_0" arrivalPos="55.66" arrivalSpeed="13.88" duration="49.80" routeLength="623.75" waitingTime="0.00" waitingCount="0" stopTime="0.00" timeLoss="3.04" rerouteNo="0" devices="tripinfo_veh102" vType="DEFAULT_VEHTYPE" speedFactor="1.00" vaporized=""/>
    <tripinfo id="veh39" depart="90.90" departLane="-258728090#3_0" departPos="186.36" departSpeed="13.82" departDelay="0.03" arrival="291.90" arrivalLane="649040853#2_0" arrivalPos="953.89" arrivalSpeed="22.05" duration="201.00" routeLength="1643.70" waitingTime="81.00" waitingCount="3" stopTime="0.00" timeLoss="107.58" rerouteNo="0" devices="tripinfo_veh39" vType="DEFAULT_VEHTYPE" speedFactor="0.99" vaporized=""/>
    <tripinfo id="veh89" depart="207.40" departLane="-258728090#3_0" departPos="184.62" departSpeed="13.99" departDelay="0.03" arrival="292.30" arrivalLane="-223632525#0_0" arrivalPos="198.61" arrivalSpeed="13.89" duration="84.90" routeLength="1099.18" waitingTime="0.00" waitingCount="0" stopTime="0.00" timeLoss="3.99" rerouteNo="0" devices="tripinfo_veh89" vType="DEFAULT_VEHTYPE" speedFactor="1.01" vaporized=""/>
    <tripinfo id="veh62" depart="144.50" departLane="-E2_0" departPos="13.87" departSpeed="12.49" departDelay="0.04" arrival="293.20" arrivalLane="671642282_0" arrivalPos="265.76" arrivalSpeed="12.43" duration="148.70" routeLength="1450.28" waitingTime="16.20" waitingCount="2" stopTime="0.00" timeLoss="30.43" rerouteNo="0" devices="tripinfo_veh62" vType="DEFAULT_VEHTYPE" speedFactor="0.90" vaporized=""/>
    <tripinfo id="veh73" depart="170.10" departLane="223632522_0" departPos="5.55" departSpeed="13.71" departDelay="0.01" arrival="294.20" arrivalLane="649064896#1_0" arrivalPos="201.76" arrivalSpeed="13.67" duration="124.10" routeLength="669.59" waitingTime="61.60" waitingCount="3" stopTime="0.00" timeLoss="75.53" rerouteNo="0" devices="tripinfo_veh73" vType="DEFAULT_VEHTYPE" speedFactor="0.99" vaporized=""/>
    <tripinfo id="veh83" depart="193.40" departLane="-649064895_0" departPos="7.03" departSpeed="13.06" departDelay="0.01" arrival="295.00" arrivalLane="223632517_0" arrivalPos="418.97" arrivalSpeed="13.00" duration="101.60" routeLength="1251.57" waitingTime="0.00" waitingCount="0" stopTime="0.00" timeLoss="3.69" rerouteNo="0" devices="tripinfo_veh83" vType="DEFAULT_VEHTYPE" speedFactor="0.94" vaporized=""/>