<?xml version="1.0" encoding="UTF-8"?>

<!-- generated on 2025-06-12 11:32:55 by Eclipse SUMO sumo Version 1.22.0
<sumoConfiguration xmlns:xsi="http://www.w3.org/2001/XMLSchema-instance" xsi:noNamespaceSchemaLocation="http://sumo.dlr.de/xsd/sumoConfiguration.xsd">

    <input>
        <net-file value="E:/licenta/oras-mediu/2025-06-05-11-45-23/osm.net.xml"/>
        <route-files value="E:/licenta/oras-mediu/2025-06-05-11-45-23/full.rou.xml,E:/licenta/oras-mediu/2025-06-05-11-45-23/ ped.rou.xml,E:/licenta/oras-mediu/2025-06-05-11-45-23/ truck.rou.xml"/>
        <additional-files value="E:/licenta/oras-mediu/2025-06-05-11-45-23/osm.poly.xml,E:/licenta/oras-mediu/2025-06-05-11-45-23/ vtypes.xml"/>
    </input>

    <output>
        <summary-output value="E:/licenta/oras-mediu/2025-06-05-11-45-23/summary.xml"/>
        <tripinfo-output value="E:/licenta/oras-mediu/2025-06-05-11-45-23/tripinfo.xml"/>
    </output>

    <processing>
        <ignore-route-errors value="true"/>
        <tls.actuated.jam-threshold value="30"/>
    </processing>

    <routing>
        <device.rerouting.adaptation-steps value="18"/>
        <device.rerouting.adaptation-interval value="10"/>
    </routing>

    <report>
        <verbose value="true"/>
        <duration-log.statistics value="true"/>
        <no-step-log value="true"/>
    </report>

    <traci_server>
        <remote-port value="62832"/>
    </traci_server>

    <gui_only>
        <gui-settings-file value="E:/licenta/oras-mediu/2025-06-05-11-45-23/osm.view.xml"/>
    </gui_only>

</sumoConfiguration>
-->

<tripinfos xmlns:xsi="http://www.w3.org/2001/XMLSchema-instance" xsi:noNamespaceSchemaLocation="http://sumo.dlr.de/xsd/tripinfo_file.xsd">
    <tripinfo id="veh8" depart="6.00" departLane="-43544138#0_1" departPos="11.67" departSpeed="0.00" departDelay="0.72" arrival="40.00" arrivalLane="1136289992_1" arrivalPos="17.60" arrivalSpeed="6.37" duration="34.00" routeLength="246.14" waitingTime="0.00" waitingCount="0" stopTime="0.00" timeLoss="8.20" rerouteNo="0" devices="tripinfo_veh8" vType="passenger" speedFactor="0.90" vaporized=""/>
    <tripinfo id="veh6" depart="4.00" departLane="48778489#3_2" departPos="0.85" departSpeed="0.00" departDelay="0.04" arrival="80.00" arrivalLane="-859732802#0_0" arrivalPos="5.60" arrivalSpeed="5.05" duration="76.00" routeLength="713.32" waitingTime="0.00" waitingCount="0" stopTime="0.00" timeLoss="12.75" rerouteNo="0" devices="tripinfo_veh6" vType="passenger" speedFactor="0.92" vaporized=""/>
    <tripinfo id="veh54" depart="36.00" departLane="984521612#0_0" departPos="1.06" departSpeed="0.00" departDelay="0.36" arrival="82.00" arrivalLane="-250295383#6_1" arrivalPos="25.71" arrivalSpeed="11.77" duration="46.00" routeLength="278.98" waitingTime="0.00" waitingCount="0" stopTime="0.00" timeLoss="8.32" rerouteNo="0" devices="tripinfo_veh54" vType="delivery" speedFactor="0.96" vaporized=""/>
    <tripinfo id="veh58" depart="39.00" departLane="48736620#3_2" departPos="6.18" departSpeed="0.00" departDelay="0.72" arrival="92.00" arrivalLane="-40314853#3_1" arrivalPos="25.30" arrivalSpeed="11.46" duration="53.00" routeLength="551.81" waitingTime="0.00" waitingCount="0" stopTime="0.00" timeLoss="8.53" rerouteNo="0" devices="tripinfo_veh58" vType="passenger" speedFactor="0.92" vaporized=""/>
    <tripinfo id="veh2" depart="2.00" departLane="33909840#0_1" departPos="123.61" departSpeed="0.00" departDelay="0.68" arrival="93.00" arrivalLane="40299276#1_1" arrivalPos="70.79" arrivalSpeed="14.43" duration="91.00" routeLength="685.98" waitingTime="19.00" waitingCount="2" stopTime="0.00" timeLoss="40.96" rerouteNo="0" devices="tripinfo_veh2" vType="passenger" speedFactor="1.08" vaporized=""/>
    <personinfo id="ped12" depart="60.00" type="DEFAULT_PEDTYPE" speedFactor="1.19" duration="40.00" waitingTime="0.00" timeLoss="4.58" traveltime="40.00">
        <walk depart="60.00" departPos="0.00" arrival="100.00" arrivalPos="47.01" duration="40.00" routeLength="58.68" timeLoss="4.58" maxSpeed="1.66"/>
    </personinfo>
    <tripinfo id="veh61" depart="41.00" departLane="-1135856746#0_1" departPos="3.10" departSpeed="0.00" departDelay="0.74" arrival="100.00" arrivalLane="994066250_0" arrivalPos="136.89" arrivalSpeed="4.75" duration="59.00" routeLength="329.43" waitingTime="0.00" waitingCount="0" stopTime="0.00" timeLoss="9.44" rerouteNo="0" devices="tripinfo_veh61" vType="passenger" speedFactor="1.02" vaporized=""/>
    <tripinfo id="veh29" depart="20.00" departLane="-48736647#1_1" departPos="26.22" departSpeed="0.00" departDelay="0.86" arrival="104.00" arrivalLane="-1135855898_0" arrivalPos="54.52" arrivalSpeed="4.92" duration="84.00" routeLength="830.38" waitingTime="0.00" waitingCount="0" stopTime="0.00" timeLoss="16.56" rerouteNo="0" devices="tripinfo_veh29" vType="passenger" speedFactor="1.03" vaporized=""/>
    <tripinfo id="veh80" depart="53.00" departLane="401741889#0_1" departPos="160.32" departSpeed="0.00" departDelay="0.20" arrival="118.00" arrivalLane="-223942064#2_0" arrivalPos="10.18" arrivalSpeed="14.02" duration="65.00" routeLength="808.91" waitingTime="0.00" waitingCount="0" stopTime="0.00" timeLoss="9.89" rerouteNo="0" devices="tripinfo_veh80" vType="passenger" speedFactor="1.08" vaporized=""/>
    <tripinfo id="veh11" depart="8.00" departLane="40236144#0_1" departPos="21.50" departSpeed="0.00" departDelay="0.74" arrival="132.00" arrivalLane="1136117604_1" arrivalPos="21.30" arrivalSpeed="10.01" duration="124.00" routeLength="738.82" waitingTime="45.00" waitingCount="2" stopTime="0.00" timeLoss="65.49" rerouteNo="0" devices="tripinfo_veh11" vType="delivery" speedFactor="0.97" vaporized=""/>
    <personinfo id="ped20" depart="100.00" type="DEFAULT_PEDTYPE" speedFactor="0.98" duration="46.00" waitingTime="0.00" timeLoss="15.27" traveltime="46.00">
        <walk depart="100.00" departPos="0.00" arrival="146.00" arrivalPos="16.82" duration="46.00" routeLength="41.94" timeLoss="15.27" maxSpeed="1.36"/>
    </personinfo>
    <tripinfo id="veh82" depart="55.00" departLane="-258551317_1" departPos="21.28" departSpeed="0.00" departDelay="0.88" arrival="149.00" arrivalLane="1136301811_1" arrivalPos="31.32" arrivalSpeed="7.01" duration="94.00" routeLength="866.25" waitingTime="0.00" waitingCount="0" stopTime="0.00" timeLoss="22.86" rerouteNo="0" devices="tripinfo_veh82" vType="passenger" speedFactor="0.98" vaporized=""/>
    <tripinfo id="veh55" depart="37.00" departLane="1250915720#0_1" departPos="1.58" departSpeed="0.00" departDelay="0.70" arrival="154.00" arrivalLane="671386628#1_1" arrivalPos="211.01" arrivalSpeed="14.64" duration="117.00" routeLength="1222.38" waitingTime="0.00" waitingCount="0" stopTime="0.00" timeLoss="13.59" rerouteNo="0" devices="tripinfo_veh55" vType="passenger" speedFactor="1.06" vaporized=""/>
    <tripinfo id="veh100" depart="66.00" departLane="-304695350#1_1" departPos="88.48" departSpeed="0.00" departDelay="0.00" arrival="154.00" arrivalLane="40299276#1_1" arrivalPos="70.79" arrivalSpeed="14.54" duration="88.00" routeLength="895.55" waitingTime="0.00" waitingCount="0" stopTime="0.00" timeLoss="19.42" rerouteNo="0" devices="tripinfo_veh100" vType="passenger" speedFactor="1.12" vaporized=""/>
    <tripinfo id="veh41" depart="28.00" departLane="-48736658_1" departPos="35.41" departSpeed="0.00" departDelay="0.94" arrival="158.00" arrivalLane="-40314883_1" arrivalPos="74.78" arrivalSpeed="11.55" duration="130.00" routeLength="735.78" waitingTime="46.00" waitingCount="2" stopTime="0.00" timeLoss="67.15" rerouteNo="0" devices="tripinfo_veh41" vType="motorcycle" speedFactor="0.90" vaporized=""/>
    <tripinfo id="veh50" depart="33.00" departLane="1136284448_1" departPos="15.34" departSpeed="0.00" departDelay="0.00" arrival="162.00" arrivalLane="48778514#2_1" arrivalPos="129.42" arrivalSpeed="12.20" duration="129.00" routeLength="1033.97" waitingTime="24.00" waitingCount="1" stopTime="0.00" timeLoss="42.69" rerouteNo="0" devices="tripinfo_veh50" vType="passenger" speedFactor="0.91" vaporized=""/>
    <tripinfo id="veh43" depart="29.00" departLane="48778524#1_1" departPos="0.29" departSpeed="0.00" departDelay="0.62" arrival="166.00" arrivalLane="1136289989_1" arrivalPos="16.58" arrivalSpeed="7.26" duration="137.00" routeLength="1081.73" waitingTime="6.00" waitingCount="2" stopTime="0.00" timeLoss="50.08" rerouteNo="0" devices="tripinfo_veh43" vType="passenger" speedFactor="1.02" vaporized=""/>
    <tripinfo id="veh127" depart="84.00" departLane="-1250915721#2_1" departPos="2.58" departSpeed="0.00" departDelay="0.18" arrival="167.00" arrivalLane="-1136119744_1" arrivalPos="13.62" arrivalSpeed="7.65" duration="83.00" routeLength="501.32" waitingTime="0.00" waitingCount="0" stopTime="0.00" timeLoss="18.68" rerouteNo="0" devices="tripinfo_veh127" vType="delivery" speedFactor="1.00" vaporized=""/>
    <tripinfo id="veh72" depart="48.00" departLane="48797770_1" departPos="15.44" departSpeed="0.00" departDelay="0.48" arrival="170.00" arrivalLane="-647762524_1" arrivalPos="48.75" arrivalSpeed="11.67" duration="122.00" routeLength="693.35" waitingTime="35.00" waitingCount="1" stopTime="0.00" timeLoss="58.43" rerouteNo="0" devices="tripinfo_veh72" vType="passenger" speedFactor="0.86" vaporized=""/>
    <tripinfo id="veh182" depart="121.00" departLane="-48778472_1" departPos="38.41" departSpeed="0.00" departDelay="0.88" arrival="171.00" arrivalLane="48778473#1_1" arrivalPos="30.96" arrivalSpeed="12.04" duration="50.00" routeLength="319.06" waitingTime="7.00" waitingCount="1" stopTime="0.00" timeLoss="25.96" rerouteNo="0" devices="tripinfo_veh182" vType="passenger" speedFactor="1.06" vaporized=""/>
    <tripinfo id="veh95" depart="63.00" departLane="-40299241#2_1" departPos="114.34" departSpeed="0.00" departDelay="0.30" arrival="172.00" arrivalLane="-1054663953_0" arrivalPos="46.63" arrivalSpeed="5.51" duration="109.00" routeLength="966.65" waitingTime="10.00" waitingCount="2" stopTime="0.00" timeLoss="33.90" rerouteNo="0" devices="tripinfo_veh95" vType="passenger" speedFactor="1.03" vaporized=""/>
    <tripinfo id="veh88" depart="59.00" departLane="945794108_1" departPos="3.71" departSpeed="0.00" departDelay="0.92" arrival="173.00" arrivalLane="-383582506_0" arrivalPos="44.83" arrivalSpeed="5.98" duration="114.00" routeLength="1212.04" waitingTime="0.00" waitingCount="0" stopTime="0.00" timeLoss="22.31" rerouteNo="0" devices="tripinfo_veh88" vType="passenger" speedFactor="1.10" vaporized=""/>
    <tripinfo id="veh21" depart="14.00" departLane="-33909936#2_1" departPos="40.74" departSpeed="0.00" departDelay="0.14" arrival="180.00" arrivalLane="354252043_1" arrivalPos="59.61" arrivalSpeed="15.63" duration="166.00" routeLength="2077.40" waitingTime="0.00" waitingCount="0" stopTime="0.00" timeLoss="29.81" rerouteNo="0" devices="tripinfo_veh21" vType="passenger" speedFactor="1.15" vaporized=""/>
    <tripinfo id="veh217" depart="144.00" departLane="48736637_1" departPos="0.33" departSpeed="0.00" departDelay="0.78" arrival="184.00" arrivalLane="-40299739#0_1" arrivalPos="93.05" arrivalSpeed="15.19" duration="40.00" routeLength="511.92" waitingTime="0.00" waitingCount="0" stopTime="0.00" timeLoss="6.14" rerouteNo="0" devices="tripinfo_veh217" vType="delivery" speedFactor="1.13" vaporized=""/>
    <tripinfo id="veh16" depart="11.00" departLane="-1136289991_1" departPos="0.64" departSpeed="0.00" departDelay="0.44" arrival="185.00" arrivalLane="-43546460#8_1" arrivalPos="96.42" arrivalSpeed="13.37" duration="174.00" routeLength="1739.06" waitingTime="0.00" waitingCount="0" stopTime="0.00" timeLoss="43.96" rerouteNo="0" devices="tripinfo_veh16" vType="passenger" speedFactor="1.01" vaporized=""/>
    <tripinfo id="veh177" depart="117.00" departLane="-48778524#4_1" departPos="10.46" departSpeed="0.00" departDelay="0.18" arrival="190.00" arrivalLane="43544197#7_1" arrivalPos="49.46" arrivalSpeed="13.81" duration="73.00" routeLength="856.03" waitingTime="0.00" waitingCount="0" stopTime="0.00" timeLoss="10.36" rerouteNo="0" devices="tripinfo_veh177" vType="motorcycle" speedFactor="1.01" vaporized=""/>
    <tripinfo id="veh3" depart="2.00" departLane="-222609002#0_1" departPos="5.03" departSpeed="0.00" departDelay="0.02" arrival="192.00" arrivalLane="222605084#6_0" arrivalPos="0.20" arrivalSpeed="4.99" duration="190.00" routeLength="963.79" waitingTime="63.00" waitingCount="1" stopTime="0.00" timeLoss="86.45" rerouteNo="0" devices="tripinfo_veh3" vType="passenger" speedFactor="0.94" vaporized=""/>
    <tripinfo id="veh67" depart="45.00" departLane="256684296_0" departPos="39.72" departSpeed="0.00" departDelay="0.78" arrival="192.00" arrivalLane="-383582854#2_0" arrivalPos="38.66" arrivalSpeed="3.75" duration="147.00" routeLength="1239.00" waitingTime="0.00" waitingCount="0" stopTime="0.00" timeLoss="17.82" rerouteNo="0" devices="tripinfo_veh67" vType="passenger" speedFactor="0.83" vaporized=""/>
    <tripinfo id="veh198" depart="131.00" departLane="945793486#1_0" departPos="20.24" departSpeed="0.00" departDelay="0.32" arrival="195.00" arrivalLane="273835688_1" arrivalPos="176.77" arrivalSpeed="13.28" duration="64.00" routeLength="582.74" waitingTime="0.00" waitingCount="0" stopTime="0.00" timeLoss="16.16" rerouteNo="0" devices="tripinfo_veh198" vType="passenger" speedFactor="1.02" vaporized=""/>
    <tripinfo id="veh89" depart="59.00" departLane="984521612#0_0" departPos="10.23" departSpeed="0.00" departDelay="0.26" arrival="197.00" arrivalLane="40236259_1" arrivalPos="166.86" arrivalSpeed="12.36" duration="138.00" routeLength="1170.19" waitingTime="6.00" waitingCount="1" stopTime="0.00" timeLoss="41.26" rerouteNo="0" devices="tripinfo_veh89" vType="passenger" speedFactor="0.97" vaporized=""/>
    <tripinfo id="veh119" depart="79.00" departLane="-43573547#2_1" departPos="33.45" departSpeed="0.00" departDelay="0.46" arrival="198.00" arrivalLane="43544001#15_1" arrivalPos="24.26" arrivalSpeed="11.88" duration="119.00" routeLength="1416.84" waitingTime="0.00" waitingCount="0" stopTime="0.00" timeLoss="17.55" rerouteNo="0" devices="tripinfo_veh119" vType="motorcycle" speedFactor="1.04" vaporized=""/>
    <tripinfo id="veh131" depart="87.00" departLane="-48736631_1" departPos="6.10" departSpeed="0.00" departDelay="0.54" arrival="199.00" arrivalLane="-48736650#1_1" arrivalPos="15.41" arrivalSpeed="12.73" duration="112.00" routeLength="1044.13" waitingTime="5.00" waitingCount="1" stopTime="0.00" timeLoss="27.47" rerouteNo="0" devices="tripinfo_veh131" vType="passenger" speedFactor="0.97" vaporized=""/>
    <personinfo id="ped4" depart="20.00" type="DEFAULT_PEDTYPE" speedFactor="0.85" duration="180.00" waitingTime="0.00" timeLoss="17.56" traveltime="180.00">
        <walk depart="20.00" departPos="0.00" arrival="200.00" arrivalPos="27.93" duration="180.00" routeLength="192.15" timeLoss="17.56" maxSpeed="1.18"/>
    </personinfo>
    <tripinfo id="veh165" depart="109.00" departLane="-E110_1" departPos="132.63" departSpeed="0.00" departDelay="0.10" arrival="204.00" arrivalLane="-43573547#6_1" arrivalPos="56.24" arrivalSpeed="12.66" duration="95.00" routeLength="1087.90" waitingTime="0.00" waitingCount="0" stopTime="0.00" timeLoss="14.60" rerouteNo="0" devices="tripinfo_veh165" vType="emergency" speedFactor="1.00" vaporized=""/>
    <tripinfo id="veh31" depart="21.00" departLane="-383582854#2_0" departPos="31.92" departSpeed="0.00" departDelay="0.54" arrival="208.00" arrivalLane="-1250915720#6_1" arrivalPos="63.36" arrivalSpeed="4.85" duration="187.00" routeLength="1787.71" waitingTime="27.00" waitingCount="1" stopTime="0.00" timeLoss="49.30" rerouteNo="0" devices="tripinfo_veh31" vType="passenger" speedFactor="1.04" vaporized=""/>
    <tripinfo id="veh15" depart="10.00" departLane="353939570#6_2" departPos="0.06" departSpeed="0.00" departDelay="0.10" arrival="209.00" arrivalLane="48778475#1_1" arrivalPos="25.99" arrivalSpeed="11.16" duration="199.00" routeLength="1738.46" waitingTime="27.00" waitingCount="1" stopTime="0.00" timeLoss="53.59" rerouteNo="0" devices="tripinfo_veh15" vType="passenger" speedFactor="0.89" vaporized=""/>
    <tripinfo id="veh30" depart="20.00" departLane="-222605084#5_1" departPos="2.12" departSpeed="0.00" departDelay="0.20" arrival="210.00" arrivalLane="43544184#1_1" arrivalPos="0.22" arrivalSpeed="13.63" duration="190.00" routeLength="2048.81" waitingTime="0.00" waitingCount="0" stopTime="0.00" timeLoss="28.94" rerouteNo="0" devices="tripinfo_veh30" vType="passenger" speedFactor="1.07" vaporized=""/>
    <tripinfo id="veh74" depart="49.00" departLane="174818022#1_0" departPos="7.65" departSpeed="0.00" departDelay="0.16" arrival="211.00" arrivalLane="-353939570#6_2" arrivalPos="0.20" arrivalSpeed="11.39" duration="162.00" routeLength="1412.37" waitingTime="12.00" waitingCount="3" stopTime="0.00" timeLoss="43.29" rerouteNo="0" devices="tripinfo_veh74" vType="passenger" speedFactor="1.14" vaporized=""/>
    <tripinfo id="veh48" depart="32.00" departLane="48736657#0_1" departPos="42.15" departSpeed="0.00" departDelay="0.32" arrival="212.00" arrivalLane="-1135772296#1_0" arrivalPos="28.75" arrivalSpeed="4.65" duration="180.00" routeLength="1476.64" waitingTime="29.00" waitingCount="2" stopTime="0.00" timeLoss="64.55" rerouteNo="0" devices="tripinfo_veh48" vType="delivery" speedFactor="0.99" vaporized=""/>
    <tripinfo id="veh142" depart="94.00" departLane="48736646#0_1" departPos="51.19" departSpeed="0.00" departDelay="0.28" arrival="221.00" arrivalLane="40269009#2_1" arrivalPos="65.05" arrivalSpeed="12.91" duration="127.00" routeLength="1328.15" waitingTime="0.00" waitingCount="0" stopTime="0.00" timeLoss="23.85" rerouteNo="0" devices="tripinfo_veh142" vType="motorcycle" speedFactor="0.98" vaporized=""/>
    <tripinfo id="veh150" depart="99.00" departLane="-984508802_0" departPos="18.31" departSpeed="0.00" departDelay="0.00" arrival="221.00" arrivalLane="33909936#0_1" arrivalPos="22.47" arrivalSpeed="11.40" duration="122.00" routeLength="588.98" waitingTime="44.00" waitingCount="2" stopTime="0.00" timeLoss="65.56" rerouteNo="0" devices="tripinfo_veh150" vType="passenger" speedFactor="0.91" vaporized=""/>
    <tripinfo id="veh228" depart="151.00" departLane="48778505#2_1" departPos="44.81" departSpeed="0.00" departDelay="0.52" arrival="226.00" arrivalLane="-43547256#2_1" arrivalPos="217.44" arrivalSpeed="15.89" duration="75.00" routeLength="988.09" waitingTime="0.00" waitingCount="0" stopTime="0.00" timeLoss="11.34" rerouteNo="0" devices="tripinfo_veh228" vType="passenger" speedFactor="1.16" vaporized=""/>
    <tripinfo id="veh204" depart="135.00" departLane="1136284448_1" departPos="15.63" departSpeed="0.00" departDelay="0.36" arrival="231.00" arrivalLane="-48778520_1" arrivalPos="53.92" arrivalSpeed="12.68" duration="96.00" routeLength="1027.85" waitingTime="0.00" waitingCount="0" stopTime="0.00" timeLoss="16.31" rerouteNo="0" devices="tripinfo_veh204" vType="passenger" speedFactor="0.98" vaporized=""/>
    <tripinfo id="veh213" depart="141.00" departLane="40304754#2_1" departPos="77.77" departSpeed="0.00" departDelay="0.42" arrival="231.00" arrivalLane="43546789#3_1" arrivalPos="80.36" arrivalSpeed="5.96" duration="90.00" routeLength="700.28" waitingTime="15.00" waitingCount="1" stopTime="0.00" timeLoss="32.89" rerouteNo="0" devices="tripinfo_veh213" vType="passenger" speedFactor="0.96" vaporized=""/>
    <tripinfo id="veh110" depart="73.00" departLane="-92198453#1_1" departPos="7.69" departSpeed="0.00" departDelay="0.40" arrival="233.00" arrivalLane="40305706#0_1" arrivalPos="32.26" arrivalSpeed="11.69" duration="160.00" routeLength="1715.69" waitingTime="25.00" waitingCount="1" stopTime="0.00" timeLoss="46.48" rerouteNo="0" devices="tripinfo_veh110" vType="passenger" speedFactor="1.11" vaporized=""/>
    <tripinfo id="veh44" depart="30.00" departLane="-222605087#4_1" departPos="42.22" departSpeed="0.00" departDelay="0.96" arrival="235.00" arrivalLane="48778493#0_1" arrivalPos="6.51" arrivalSpeed="9.25" duration="205.00" routeLength="968.00" waitingTime="80.00" waitingCount="2" stopTime="0.00" timeLoss="110.40" rerouteNo="0" devices="tripinfo_veh44" vType="passenger" speedFactor="1.00" vaporized=""/>
    <tripinfo id="veh128" depart="85.00" departLane="-43545645#2_1" departPos="133.27" departSpeed="0.00" departDelay="0.52" arrival="235.00" arrivalLane="996486454#1_1" arrivalPos="99.11" arrivalSpeed="11.84" duration="150.00" routeLength="1509.17" waitingTime="0.00" waitingCount="0" stopTime="0.00" timeLoss="21.21" rerouteNo="0" devices="tripinfo_veh128" vType="passenger" speedFactor="0.88" vaporized=""/>
    <tripinfo id="veh152" depart="101.00" departLane="-984508804_0" departPos="6.33" departSpeed="0.00" departDelay="0.68" arrival="235.00" arrivalLane="-40330583#0_0" arrivalPos="91.11" arrivalSpeed="28.50" duration="134.00" routeLength="1595.37" waitingTime="8.00" waitingCount="1" stopTime="0.00" timeLoss="42.58" rerouteNo="0" devices="tripinfo_veh152" vType="passenger" speedFactor="1.18" vaporized=""/>
    <tripinfo id="veh120" depart="80.00" departLane="40304754#0_1" departPos="168.05" departSpeed="0.00" departDelay="0.80" arrival="236.00" arrivalLane="-1135772296#1_0" arrivalPos="28.75" arrivalSpeed="4.00" duration="156.00" routeLength="1373.99" waitingTime="7.00" waitingCount="2" stopTime="0.00" timeLoss="39.52" rerouteNo="0" devices="tripinfo_veh120" vType="passenger" speedFactor="0.94" vaporized=""/>
    <tripinfo id="veh123" depart="82.00" departLane="43546053#1_1" departPos="0.36" departSpeed="0.00" departDelay="0.82" arrival="236.00" arrivalLane="-222609002#2_1" arrivalPos="15.40" arrivalSpeed="12.14" duration="154.00" routeLength="1554.63" waitingTime="1.00" waitingCount="1" stopTime="0.00" timeLoss="27.06" rerouteNo="0" devices="tripinfo_veh123" vType="passenger" speedFactor="0.92" vaporized=""/>
    <tripinfo id="veh171" depart="113.00" departLane="-48778517#1_1" departPos="1.17" departSpeed="0.00" departDelay="0.14" arrival="239.00" arrivalLane="143207979#1_1" arrivalPos="43.59" arrivalSpeed="13.46" duration="126.00" routeLength="1348.76" waitingTime="1.00" waitingCount="1" stopTime="0.00" timeLoss="23.21" rerouteNo="0" devices="tripinfo_veh171" vType="delivery" speedFactor="1.03" vaporized=""/>
    <tripinfo id="veh209" depart="138.00" departLane="1135856746#1_1" departPos="94.46" departSpeed="0.00" departDelay="0.06" arrival="239.00" arrivalLane="1135854210_1" arrivalPos="13.11" arrivalSpeed="4.87" duration="101.00" routeLength="1160.51" waitingTime="0.00" waitingCount="0" stopTime="0.00" timeLoss="14.01" rerouteNo="0" devices="tripinfo_veh209" vType="passenger" speedFactor="1.01" vaporized=""/>
    <tripinfo id="veh1" depart="1.00" departLane="-40334245#0_1" departPos="3.90" departSpeed="0.00" departDelay="0.34" arrival="241.00" arrivalLane="43544624#1_1" arrivalPos="93.66" arrivalSpeed="14.13" duration="240.00" routeLength="2827.32" waitingTime="2.00" waitingCount="1" stopTime="0.00" timeLoss="45.58" rerouteNo="0" devices="tripinfo_veh1" vType="passenger" speedFactor="1.08" vaporized=""/>
    <tripinfo id="veh174" depart="115.00" departLane="-48778461#0_1" departPos="1.64" departSpeed="0.00" departDelay="0.16" arrival="241.00" arrivalLane="40305706#1_1" arrivalPos="57.88" arrivalSpeed="13.16" duration="126.00" routeLength="1041.65" waitingTime="22.00" waitingCount="1" stopTime="0.00" timeLoss="50.16" rerouteNo="0" devices="tripinfo_veh174" vType="motorcycle" speedFactor="1.10" vaporized=""/>
    <tripinfo id="veh137" depart="91.00" departLane="-1364605473_0" departPos="13.52" departSpeed="0.00" departDelay="0.58" arrival="242.00" arrivalLane="48778494#1_1" arrivalPos="15.92" arrivalSpeed="14.28" duration="151.00" routeLength="1686.25" waitingTime="4.00" waitingCount="1" stopTime="0.00" timeLoss="29.32" rerouteNo="0" devices="tripinfo_veh137" vType="passenger" speedFactor="1.06" vaporized=""/>
    <tripinfo id="veh130" depart="86.00" departLane="-143207979#7_1" departPos="41.24" departSpeed="0.00" departDelay="0.20" arrival="243.00" arrivalLane="-578560104#5_1" arrivalPos="72.53" arrivalSpeed="15.54" duration="157.00" routeLength="1862.24" waitingTime="0.00" waitingCount="0" stopTime="0.00" timeLoss="33.95" rerouteNo="0" devices="tripinfo_veh130" vType="passenger" speedFactor="1.13" vaporized=""/>
    <personinfo id="ped22" depart="110.00" type="DEFAULT_PEDTYPE" speedFactor="1.26" duration="134.00" waitingTime="0.00" timeLoss="14.01" traveltime="134.00">
        <walk depart="110.00" departPos="0.00" arrival="244.00" arrivalPos="16.81" duration="134.00" routeLength="209.86" timeLoss="14.01" maxSpeed="1.75"/>
    </personinfo>
    <tripinfo id="veh291" depart="193.00" departLane="48736614#2_1" departPos="38.90" departSpeed="0.00" departDelay="0.94" arrival="244.00" arrivalLane="48736632#0_1" arrivalPos="108.22" arrivalSpeed="10.67" duration="51.00" routeLength="408.16" waitingTime="2.00" waitingCount="1" stopTime="0.00" timeLoss="13.91" rerouteNo="0" devices="tripinfo_veh291" vType="passenger" speedFactor="0.86" vaporized=""/>
    <tripinfo id="veh109" depart="72.00" departLane="-48736611#0_1" departPos="5.65" departSpeed="0.00" departDelay="0.06" arrival="245.00" arrivalLane="-383582497_0" arrivalPos="31.03" arrivalSpeed="2.49" duration="173.00" routeLength="1559.77" waitingTime="24.00" waitingCount="1" stopTime="0.00" timeLoss="51.13" rerouteNo="0" devices="tripinfo_veh109" vType="passenger" speedFactor="1.06" vaporized=""/>
    <tripinfo id="veh114" depart="76.00" departLane="-492965073#6_1" departPos="0.33" departSpeed="0.00" departDelay="0.76" arrival="246.00" arrivalLane="48798094#1_0" arrivalPos="327.67" arrivalSpeed="4.36" duration="170.00" routeLength="2276.83" waitingTime="0.00" waitingCount="0" stopTime="0.00" timeLoss="34.27" rerouteNo="0" devices="tripinfo_veh114" vType="passenger" speedFactor="1.21" vaporized=""/>
    <tripinfo id="veh226" depart="150.00" departLane="1135856746#1_1" departPos="87.78" departSpeed="0.00" departDelay="0.84" arrival="246.00" arrivalLane="-43546379_1" arrivalPos="170.77" arrivalSpeed="7.18" duration="96.00" routeLength="1141.56" waitingTime="0.00" waitingCount="0" stopTime="0.00" timeLoss="16.08" rerouteNo="0" devices="tripinfo_veh226" vType="passenger" speedFactor="1.05" vaporized=""/>
    <personinfo id="ped1" depart="5.00" type="DEFAULT_PEDTYPE" speedFactor="0.83" duration="243.00" waitingTime="0.00" timeLoss="23.36" traveltime="243.00">
        <walk depart="5.00" departPos="0.00" arrival="248.00" arrivalPos="108.78" duration="243.00" routeLength="253.51" timeLoss="23.36" maxSpeed="1.15"/>
    </personinfo>
    <tripinfo id="veh13" depart="10.00" departLane="-143207982#2_1" departPos="2.02" departSpeed="0.00" departDelay="1.42" arrival="248.00" arrivalLane="-222605084#0_1" arrivalPos="0.21" arrivalSpeed="4.43" duration="238.00" routeLength="1993.05" waitingTime="39.00" waitingCount="1" stopTime="0.00" timeLoss="66.97" rerouteNo="0" devices="tripinfo_veh13" vType="passenger" speedFactor="1.02" vaporized=""/>
    <tripinfo id="veh20" depart="14.00" departLane="-43546789#3_1" departPos="7.15" departSpeed="0.00" departDelay="0.80" arrival="249.00" arrivalLane="1250915720#3_1" arrivalPos="2.51" arrivalSpeed="4.51" duration="235.00" routeLength="1670.43" waitingTime="40.00" waitingCount="3" stopTime="0.00" timeLoss="76.15" rerouteNo="0" devices="tripinfo_veh20" vType="passenger" speedFactor="0.89" vaporized=""/>
    <tripinfo id="veh77" depart="51.00" departLane="1054663953_0" departPos="28.73" departSpeed="0.00" departDelay="0.18" arrival="249.00" arrivalLane="-174821558#2_0" arrivalPos="185.17" arrivalSpeed="5.24" duration="198.00" routeLength="2052.01" waitingTime="0.00" waitingCount="0" stopTime="0.00" timeLoss="20.45" rerouteNo="0" devices="tripinfo_veh77" vType="delivery" speedFactor="0.98" vaporized=""/>
    <tripinfo id="veh83" depart="55.00" departLane="401741889#0_1" departPos="361.14" departSpeed="0.00" departDelay="0.22" arrival="249.00" arrivalLane="48736666#2_1" arrivalPos="56.15" arrivalSpeed="13.11" duration="194.00" routeLength="1967.07" waitingTime="25.00" waitingCount="3" stopTime="0.00" timeLoss="54.41" rerouteNo="0" devices="tripinfo_veh83" vType="delivery" speedFactor="1.03" vaporized=""/>
    <tripinfo id="veh102" depart="68.00" departLane="-40334244#2_1" departPos="0.37" departSpeed="0.00" departDelay="0.68" arrival="249.00" arrivalLane="859732801#1_1" arrivalPos="25.05" arrivalSpeed="14.18" duration="181.00" routeLength="1552.70" waitingTime="42.00" waitingCount="2" stopTime="0.00" timeLoss="67.91" rerouteNo="0" devices="tripinfo_veh102" vType="passenger" speedFactor="1.03" vaporized=""/>
    <tripinfo id="veh283" depart="187.00" departLane="40299264#0_1" departPos="23.51" departSpeed="0.00" departDelay="0.22" arrival="250.00" arrivalLane="40314876_1" arrivalPos="38.09" arrivalSpeed="13.49" duration="63.00" routeLength="620.24" waitingTime="0.00" waitingCount="0" stopTime="0.00" timeLoss="16.94" rerouteNo="0" devices="tripinfo_veh283" vType="passenger" speedFactor="1.05" vaporized=""/>
    <personinfo id="ped25" depart="125.00" type="DEFAULT_PEDTYPE" speedFactor="1.03" duration="126.00" waitingTime="0.00" timeLoss="13.13" traveltime="126.00">
        <walk depart="125.00" departPos="0.00" arrival="251.00" arrivalPos="22.40" duration="126.00" routeLength="161.83" timeLoss="13.13" maxSpeed="1.43"/>
    </personinfo>
    <tripinfo id="veh272" depart="180.00" departLane="-48778478#0_1" departPos="0.04" departSpeed="0.00" departDelay="0.48" arrival="252.00" arrivalLane="48778449#1_1" arrivalPos="70.68" arrivalSpeed="15.95" duration="72.00" routeLength="774.57" waitingTime="0.00" waitingCount="0" stopTime="0.00" timeLoss="19.50" rerouteNo="0" devices="tripinfo_veh272" vType="passenger" speedFactor="1.16" vaporized=""/>