<?xml version="1.0" encoding="UTF-8"?>

<!-- generated on 2025-06-10 03:10:25 by Eclipse SUMO sumo Version 1.22.0
<sumoConfiguration xmlns:xsi="http://www.w3.org/2001/XMLSchema-instance" xsi:noNamespaceSchemaLocation="http://sumo.dlr.de/xsd/sumoConfiguration.xsd">

    <input>
        <net-file value="E:/licenta/oras-mediu/2025-06-05-11-45-23/osm.net.xml"/>
        <route-files value="E:/licenta/oras-mediu/2025-06-05-11-45-23/full.rou.xml,E:/licenta/oras-mediu/2025-06-05-11-45-23/ ped.rou.xml,E:/licenta/oras-mediu/2025-06-05-11-45-23/ truck.rou.xml"/>
        <additional-files value="E:/licenta/oras-mediu/2025-06-05-11-45-23/osm.poly.xml,E:/licenta/oras-mediu/2025-06-05-11-45-23/ vtypes.xml"/>
    </input>

    <output>
        <summary-output value="E:/licenta/oras-mediu/2025-06-05-11-45-23/summary.xml"/>
        <tripinfo-output value="E:/licenta/oras-mediu/2025-06-05-11-45-23/tripinfo.xml"/>
    </output>

    <processing>
        <ignore-route-errors value="true"/>
        <tls.actuated.jam-threshold value="30"/>
    </processing>

    <routing>
        <device.rerouting.adaptation-steps value="18"/>
        <device.rerouting.adaptation-interval value="10"/>
    </routing>

    <report>
        <verbose value="true"/>
        <duration-log.statistics value="true"/>
        <no-step-log value="true"/>
    </report>

    <traci_server>
        <remote-port value="49818"/>
    </traci_server>

    <gui_only>
        <gui-settings-file value="E:/licenta/oras-mediu/2025-06-05-11-45-23/osm.view.xml"/>
    </gui_only>

</sumoConfiguration>
-->

<tripinfos xmlns:xsi="http://www.w3.org/2001/XMLSchema-instance" xsi:noNamespaceSchemaLocation="http://sumo.dlr.de/xsd/tripinfo_file.xsd">
    <tripinfo id="veh16" depart="9.00" departLane="40236146_1" departPos="112.28" departSpeed="0.00" departDelay="0.68" arrival="31.00" arrivalLane="222609004#1_1" arrivalPos="58.70" arrivalSpeed="12.18" duration="22.00" routeLength="214.39" waitingTime="0.00" waitingCount="0" stopTime="0.00" timeLoss="4.56" rerouteNo="0" devices="tripinfo_veh16" vType="passenger" speedFactor="0.89" vaporized=""/>
    <tripinfo id="veh14" depart="8.00" departLane="-48736624#0_1" departPos="105.83" departSpeed="0.00" departDelay="0.72" arrival="42.00" arrivalLane="-647677163_1" arrivalPos="79.04" arrivalSpeed="13.77" duration="34.00" routeLength="318.68" waitingTime="0.00" waitingCount="0" stopTime="0.00" timeLoss="9.41" rerouteNo="0" devices="tripinfo_veh14" vType="passenger" speedFactor="1.02" vaporized=""/>
    <tripinfo id="veh44" depart="23.00" departLane="250295513_1" departPos="13.04" departSpeed="0.00" departDelay="0.12" arrival="85.00" arrivalLane="-984521611#0_0" arrivalPos="6.06" arrivalSpeed="4.55" duration="62.00" routeLength="463.61" waitingTime="0.00" waitingCount="0" stopTime="0.00" timeLoss="15.12" rerouteNo="0" devices="tripinfo_veh44" vType="passenger" speedFactor="1.05" vaporized=""/>
    <tripinfo id="veh47" depart="25.00" departLane="-43544197#1_1" departPos="36.17" departSpeed="0.00" departDelay="0.56" arrival="90.00" arrivalLane="43544197#1_1" arrivalPos="41.01" arrivalSpeed="9.54" duration="65.00" routeLength="606.10" waitingTime="0.00" waitingCount="0" stopTime="0.00" timeLoss="13.44" rerouteNo="0" devices="tripinfo_veh47" vType="motorcycle" speedFactor="0.90" vaporized=""/>
    <tripinfo id="veh70" depart="37.00" departLane="-945794109_1" departPos="12.64" departSpeed="0.00" departDelay="0.60" arrival="93.00" arrivalLane="354259933#2_1" arrivalPos="84.82" arrivalSpeed="11.90" duration="56.00" routeLength="277.08" waitingTime="0.00" waitingCount="0" stopTime="0.00" timeLoss="15.37" rerouteNo="0" devices="tripinfo_veh70" vType="motorcycle" speedFactor="0.94" vaporized=""/>
    <tripinfo id="veh72" depart="38.00" departLane="48778498#2_1" departPos="43.82" departSpeed="0.00" departDelay="0.56" arrival="98.00" arrivalLane="-354259933#3_1" arrivalPos="60.32" arrivalSpeed="14.08" duration="60.00" routeLength="613.17" waitingTime="0.00" waitingCount="0" stopTime="0.00" timeLoss="14.74" rerouteNo="0" devices="tripinfo_veh72" vType="passenger" speedFactor="1.05" vaporized=""/>
    <tripinfo id="veh115" depart="60.00" departLane="1205541344_0" departPos="82.16" departSpeed="0.00" departDelay="0.20" arrival="103.00" arrivalLane="43546506#1_1" arrivalPos="108.81" arrivalSpeed="14.30" duration="43.00" routeLength="468.65" waitingTime="4.00" waitingCount="1" stopTime="0.00" timeLoss="10.22" rerouteNo="0" devices="tripinfo_veh115" vType="passenger" speedFactor="1.11" vaporized=""/>
    <personinfo id="ped17" depart="85.00" type="DEFAULT_PEDTYPE" speedFactor="0.98" duration="23.00" waitingTime="0.00" timeLoss="3.10" traveltime="23.00">
        <walk depart="85.00" departPos="0.00" arrival="108.00" arrivalPos="14.04" duration="23.00" routeLength="27.15" timeLoss="3.10" maxSpeed="1.36"/>
    </personinfo>
    <tripinfo id="veh45" depart="24.00" departLane="-1136283379#0_1" departPos="60.79" departSpeed="0.00" departDelay="0.60" arrival="111.00" arrivalLane="353939586#1_1" arrivalPos="265.14" arrivalSpeed="13.14" duration="87.00" routeLength="809.62" waitingTime="0.00" waitingCount="0" stopTime="0.00" timeLoss="16.69" rerouteNo="0" devices="tripinfo_veh45" vType="motorcycle" speedFactor="1.00" vaporized=""/>
    <tripinfo id="veh123" depart="64.00" departLane="43546688#1_1" departPos="34.37" departSpeed="0.00" departDelay="0.04" arrival="120.00" arrivalLane="-43547296#1_1" arrivalPos="15.85" arrivalSpeed="10.90" duration="56.00" routeLength="618.78" waitingTime="0.00" waitingCount="0" stopTime="0.00" timeLoss="10.48" rerouteNo="0" devices="tripinfo_veh123" vType="motorcycle" speedFactor="1.04" vaporized=""/>
    <tripinfo id="veh188" depart="98.00" departLane="143207979#2_1" departPos="31.59" departSpeed="0.00" departDelay="0.24" arrival="124.00" arrivalLane="43546053#2_1" arrivalPos="188.18" arrivalSpeed="14.45" duration="26.00" routeLength="320.51" waitingTime="0.00" waitingCount="0" stopTime="0.00" timeLoss="3.89" rerouteNo="0" devices="tripinfo_veh188" vType="passenger" speedFactor="1.11" vaporized=""/>
    <tripinfo id="veh119" depart="62.00" departLane="647998063#1_1" departPos="31.62" departSpeed="0.00" departDelay="0.12" arrival="128.00" arrivalLane="-43544138#3_1" arrivalPos="46.01" arrivalSpeed="14.59" duration="66.00" routeLength="620.35" waitingTime="0.00" waitingCount="0" stopTime="0.00" timeLoss="21.78" rerouteNo="0" devices="tripinfo_veh119" vType="delivery" speedFactor="1.06" vaporized=""/>
    <tripinfo id="veh67" depart="35.00" departLane="647226814#0_1" departPos="1.39" departSpeed="0.00" departDelay="0.16" arrival="130.00" arrivalLane="-43547256#2_1" arrivalPos="217.44" arrivalSpeed="12.95" duration="95.00" routeLength="1026.83" waitingTime="0.00" waitingCount="0" stopTime="0.00" timeLoss="16.25" rerouteNo="0" devices="tripinfo_veh67" vType="passenger" speedFactor="0.98" vaporized=""/>
    <tripinfo id="veh43" depart="23.00" departLane="-43546648#5_1" departPos="17.97" departSpeed="0.00" departDelay="0.64" arrival="131.00" arrivalLane="-304695350#1_1" arrivalPos="233.86" arrivalSpeed="8.51" duration="108.00" routeLength="1048.56" waitingTime="0.00" waitingCount="0" stopTime="0.00" timeLoss="22.40" rerouteNo="0" devices="tripinfo_veh43" vType="passenger" speedFactor="1.17" vaporized=""/>
    <tripinfo id="veh60" depart="32.00" departLane="273834906_1" departPos="55.37" departSpeed="0.00" departDelay="0.80" arrival="133.00" arrivalLane="48797768_1" arrivalPos="94.07" arrivalSpeed="14.79" duration="101.00" routeLength="810.46" waitingTime="18.00" waitingCount="1" stopTime="0.00" timeLoss="44.40" rerouteNo="0" devices="tripinfo_veh60" vType="passenger" speedFactor="1.12" vaporized=""/>
    <tripinfo id="veh190" depart="99.00" departLane="-48778500#0_1" departPos="4.24" departSpeed="0.00" departDelay="0.20" arrival="134.00" arrivalLane="48778486_1" arrivalPos="28.07" arrivalSpeed="12.31" duration="35.00" routeLength="243.06" waitingTime="0.00" waitingCount="0" stopTime="0.00" timeLoss="11.20" rerouteNo="0" devices="tripinfo_veh190" vType="delivery" speedFactor="0.93" vaporized=""/>
    <tripinfo id="veh155" depart="81.00" departLane="-222605084#2_1" departPos="0.64" departSpeed="0.00" departDelay="0.40" arrival="138.00" arrivalLane="40330557#4_1" arrivalPos="4.47" arrivalSpeed="11.71" duration="57.00" routeLength="383.50" waitingTime="0.00" waitingCount="0" stopTime="0.00" timeLoss="9.14" rerouteNo="0" devices="tripinfo_veh155" vType="passenger" speedFactor="0.91" vaporized=""/>
    <tripinfo id="veh18" depart="10.00" departLane="48778524#0_1" departPos="75.08" departSpeed="0.00" departDelay="0.64" arrival="141.00" arrivalLane="43545645#1_1" arrivalPos="98.66" arrivalSpeed="11.57" duration="131.00" routeLength="1273.90" waitingTime="0.00" waitingCount="0" stopTime="0.00" timeLoss="20.52" rerouteNo="0" devices="tripinfo_veh18" vType="passenger" speedFactor="0.87" vaporized=""/>
    <tripinfo id="veh137" depart="72.00" departLane="43544197#8_1" departPos="125.56" departSpeed="0.00" departDelay="0.76" arrival="141.00" arrivalLane="-43544197#6_1" arrivalPos="40.81" arrivalSpeed="15.60" duration="69.00" routeLength="677.14" waitingTime="1.00" waitingCount="1" stopTime="0.00" timeLoss="22.32" rerouteNo="0" devices="tripinfo_veh137" vType="passenger" speedFactor="1.13" vaporized=""/>
    <personinfo id="ped23" depart="115.00" type="DEFAULT_PEDTYPE" speedFactor="1.08" duration="33.00" waitingTime="0.00" timeLoss="3.82" traveltime="33.00">
        <walk depart="115.00" departPos="0.00" arrival="148.00" arrivalPos="25.69" duration="33.00" routeLength="43.88" timeLoss="3.82" maxSpeed="1.50"/>
    </personinfo>
    <tripinfo id="veh134" depart="70.00" departLane="43546053#0_1" departPos="126.15" departSpeed="0.00" departDelay="0.32" arrival="148.00" arrivalLane="-43544046_1" arrivalPos="104.31" arrivalSpeed="14.65" duration="78.00" routeLength="888.07" waitingTime="0.00" waitingCount="0" stopTime="0.00" timeLoss="18.95" rerouteNo="0" devices="tripinfo_veh134" vType="passenger" speedFactor="1.13" vaporized=""/>
    <tripinfo id="veh120" depart="63.00" departLane="-40299264#0_1" departPos="24.15" departSpeed="0.00" departDelay="0.60" arrival="150.00" arrivalLane="-48736640#0_1" arrivalPos="56.32" arrivalSpeed="15.78" duration="87.00" routeLength="1056.89" waitingTime="0.00" waitingCount="0" stopTime="0.00" timeLoss="20.34" rerouteNo="0" devices="tripinfo_veh120" vType="passenger" speedFactor="1.21" vaporized=""/>
    <tripinfo id="veh27" depart="15.00" departLane="578560104#2_1" departPos="114.63" departSpeed="0.00" departDelay="0.96" arrival="151.00" arrivalLane="-48778441#0_1" arrivalPos="36.99" arrivalSpeed="13.19" duration="136.00" routeLength="1414.79" waitingTime="0.00" waitingCount="0" stopTime="0.00" timeLoss="28.59" rerouteNo="0" devices="tripinfo_veh27" vType="passenger" speedFactor="0.99" vaporized=""/>
    <tripinfo id="veh213" depart="111.00" departLane="48736612#3_1" departPos="5.20" departSpeed="0.00" departDelay="0.24" arrival="153.00" arrivalLane="647677163_1" arrivalPos="73.51" arrivalSpeed="12.86" duration="42.00" routeLength="398.69" waitingTime="0.00" waitingCount="0" stopTime="0.00" timeLoss="11.15" rerouteNo="0" devices="tripinfo_veh213" vType="passenger" speedFactor="1.01" vaporized=""/>
    <tripinfo id="veh54" depart="29.00" departLane="48778504_1" departPos="66.26" departSpeed="0.00" departDelay="0.92" arrival="154.00" arrivalLane="43544197#5_1" arrivalPos="40.80" arrivalSpeed="13.31" duration="125.00" routeLength="1280.65" waitingTime="0.00" waitingCount="0" stopTime="0.00" timeLoss="23.96" rerouteNo="0" devices="tripinfo_veh54" vType="passenger" speedFactor="0.96" vaporized=""/>
    <tripinfo id="veh86" depart="45.00" departLane="-43573573#2_1" departPos="70.78" departSpeed="0.00" departDelay="0.28" arrival="154.00" arrivalLane="222605089#1_1" arrivalPos="63.12" arrivalSpeed="16.67" duration="109.00" routeLength="1577.84" waitingTime="0.00" waitingCount="0" stopTime="0.00" timeLoss="16.54" rerouteNo="0" devices="tripinfo_veh86" vType="passenger" speedFactor="1.25" vaporized=""/>
    <tripinfo id="veh97" depart="51.00" departLane="-40236232#0_1" departPos="8.30" departSpeed="0.00" departDelay="0.56" arrival="154.00" arrivalLane="-48736613#3_1" arrivalPos="41.47" arrivalSpeed="12.92" duration="103.00" routeLength="845.39" waitingTime="6.00" waitingCount="1" stopTime="0.00" timeLoss="32.54" rerouteNo="0" devices="tripinfo_veh97" vType="passenger" speedFactor="1.02" vaporized=""/>
    <tripinfo id="veh184" depart="96.00" departLane="40345956#2_1" departPos="20.46" departSpeed="0.00" departDelay="0.32" arrival="154.00" arrivalLane="-945793490#1_1" arrivalPos="16.18" arrivalSpeed="4.17" duration="58.00" routeLength="297.00" waitingTime="0.00" waitingCount="0" stopTime="0.00" timeLoss="11.44" rerouteNo="0" devices="tripinfo_veh184" vType="passenger" speedFactor="0.91" vaporized=""/>
    <tripinfo id="veh10" depart="6.00" departLane="-43544179#6_1" departPos="31.08" departSpeed="0.00" departDelay="0.80" arrival="159.00" arrivalLane="43573547#1_1" arrivalPos="25.37" arrivalSpeed="13.74" duration="153.00" routeLength="1785.72" waitingTime="0.00" waitingCount="0" stopTime="0.00" timeLoss="23.92" rerouteNo="0" devices="tripinfo_veh10" vType="passenger" speedFactor="1.04" vaporized=""/>
    <tripinfo id="veh145" depart="76.00" departLane="48778504_1" departPos="157.93" departSpeed="0.00" departDelay="0.60" arrival="162.00" arrivalLane="-48778485#0_1" arrivalPos="25.13" arrivalSpeed="13.48" duration="86.00" routeLength="761.07" waitingTime="9.00" waitingCount="1" stopTime="0.00" timeLoss="27.41" rerouteNo="0" devices="tripinfo_veh145" vType="motorcycle" speedFactor="1.02" vaporized=""/>
    <tripinfo id="veh49" depart="26.00" departLane="1054663937_1" departPos="8.11" departSpeed="0.00" departDelay="0.52" arrival="163.00" arrivalLane="1136283381_1" arrivalPos="22.82" arrivalSpeed="7.53" duration="137.00" routeLength="1588.96" waitingTime="0.00" waitingCount="0" stopTime="0.00" timeLoss="18.79" rerouteNo="0" devices="tripinfo_veh49" vType="passenger" speedFactor="1.02" vaporized=""/>
    <tripinfo id="veh179" depart="94.00" departLane="-40236144#0_1" departPos="60.33" departSpeed="0.00" departDelay="0.92" arrival="163.00" arrivalLane="48797765#2_1" arrivalPos="21.05" arrivalSpeed="12.49" duration="69.00" routeLength="725.53" waitingTime="0.00" waitingCount="0" stopTime="0.00" timeLoss="11.39" rerouteNo="0" devices="tripinfo_veh179" vType="passenger" speedFactor="0.96" vaporized=""/>
    <tripinfo id="veh104" depart="55.00" departLane="647762524_1" departPos="28.67" departSpeed="0.00" departDelay="0.92" arrival="168.00" arrivalLane="-48736646#0_1" arrivalPos="88.89" arrivalSpeed="14.16" duration="113.00" routeLength="1079.67" waitingTime="10.00" waitingCount="1" stopTime="0.00" timeLoss="34.23" rerouteNo="0" devices="tripinfo_veh104" vType="passenger" speedFactor="1.03" vaporized=""/>
    <tripinfo id="veh81" depart="43.00" departLane="-43544179#10_1" departPos="19.17" departSpeed="0.00" departDelay="0.88" arrival="169.00" arrivalLane="43573573#3_1" arrivalPos="71.51" arrivalSpeed="11.37" duration="126.00" routeLength="1097.03" waitingTime="1.00" waitingCount="1" stopTime="0.00" timeLoss="32.20" rerouteNo="0" devices="tripinfo_veh81" vType="passenger" speedFactor="0.89" vaporized=""/>
    <tripinfo id="veh129" depart="68.00" departLane="48778475#2_1" departPos="50.24" departSpeed="0.00" departDelay="0.92" arrival="169.00" arrivalLane="48778478#2_1" arrivalPos="30.02" arrivalSpeed="11.36" duration="101.00" routeLength="876.29" waitingTime="0.00" waitingCount="0" stopTime="0.00" timeLoss="25.61" rerouteNo="0" devices="tripinfo_veh129" vType="passenger" speedFactor="0.91" vaporized=""/>
    <tripinfo id="veh178" depart="93.00" departLane="43547296#0_1" departPos="79.08" departSpeed="0.00" departDelay="0.44" arrival="172.00" arrivalLane="-92198453#3_1" arrivalPos="0.20" arrivalSpeed="13.34" duration="79.00" routeLength="984.49" waitingTime="0.00" waitingCount="0" stopTime="0.00" timeLoss="11.92" rerouteNo="0" devices="tripinfo_veh178" vType="motorcycle" speedFactor="1.10" vaporized=""/>
    <tripinfo id="veh73" depart="38.00" departLane="43544001#0_1" departPos="8.93" departSpeed="0.00" departDelay="0.04" arrival="173.00" arrivalLane="-647262856_1" arrivalPos="411.78" arrivalSpeed="14.25" duration="135.00" routeLength="1578.11" waitingTime="0.00" waitingCount="0" stopTime="0.00" timeLoss="24.77" rerouteNo="0" devices="tripinfo_veh73" vType="passenger" speedFactor="1.06" vaporized=""/>
    <tripinfo id="veh69" depart="36.00" departLane="-1205541343#0_1" departPos="23.14" departSpeed="0.00" departDelay="0.12" arrival="174.00" arrivalLane="-250295382_1" arrivalPos="106.55" arrivalSpeed="13.43" duration="138.00" routeLength="1147.66" waitingTime="34.00" waitingCount="1" stopTime="0.00" timeLoss="52.60" rerouteNo="0" devices="tripinfo_veh69" vType="passenger" speedFactor="1.01" vaporized=""/>
    <tripinfo id="veh166" depart="87.00" departLane="48736610#0_1" departPos="33.89" departSpeed="0.00" departDelay="0.68" arrival="174.00" arrivalLane="40314583#3_1" arrivalPos="33.07" arrivalSpeed="10.73" duration="87.00" routeLength="846.13" waitingTime="0.00" waitingCount="0" stopTime="0.00" timeLoss="11.93" rerouteNo="0" devices="tripinfo_veh166" vType="passenger" speedFactor="0.83" vaporized=""/>
    <tripinfo id="veh247" depart="129.00" departLane="43544624#3_1" departPos="52.10" departSpeed="0.00" departDelay="0.56" arrival="175.00" arrivalLane="43544197#4_1" arrivalPos="41.55" arrivalSpeed="12.68" duration="46.00" routeLength="471.63" waitingTime="0.00" waitingCount="0" stopTime="0.00" timeLoss="8.57" rerouteNo="0" devices="tripinfo_veh247" vType="passenger" speedFactor="0.97" vaporized=""/>
    <tripinfo id="veh4" depart="3.00" departLane="-43544184#4_1" departPos="4.32" departSpeed="0.00" departDelay="0.92" arrival="178.00" arrivalLane="-945793491#0_1" arrivalPos="34.62" arrivalSpeed="4.39" duration="175.00" routeLength="1763.28" waitingTime="0.00" waitingCount="0" stopTime="0.00" timeLoss="23.97" rerouteNo="0" devices="tripinfo_veh4" vType="passenger" speedFactor="1.02" vaporized=""/>
    <tripinfo id="veh262" depart="137.00" departLane="-43546449#1_1" departPos="34.61" departSpeed="0.00" departDelay="0.76" arrival="178.00" arrivalLane="-40314853#2_1" arrivalPos="35.46" arrivalSpeed="13.55" duration="41.00" routeLength="429.30" waitingTime="0.00" waitingCount="0" stopTime="0.00" timeLoss="11.77" rerouteNo="0" devices="tripinfo_veh262" vType="passenger" speedFactor="1.13" vaporized=""/>
    <tripinfo id="veh42" depart="22.00" departLane="-40306149_1" departPos="30.78" departSpeed="0.00" departDelay="0.16" arrival="181.00" arrivalLane="40236146_1" arrivalPos="206.28" arrivalSpeed="14.70" duration="159.00" routeLength="1799.09" waitingTime="0.00" waitingCount="0" stopTime="0.00" timeLoss="31.17" rerouteNo="0" devices="tripinfo_veh42" vType="passenger" speedFactor="1.06" vaporized=""/>
    <tripinfo id="veh183" depart="96.00" departLane="-40345956#1_1" departPos="74.93" departSpeed="0.00" departDelay="0.84" arrival="183.00" arrivalLane="859734514#1_0" arrivalPos="56.51" arrivalSpeed="4.98" duration="87.00" routeLength="750.72" waitingTime="0.00" waitingCount="0" stopTime="0.00" timeLoss="18.88" rerouteNo="0" devices="tripinfo_veh183" vType="motorcycle" speedFactor="1.00" vaporized=""/>
    <tripinfo id="veh157" depart="82.00" departLane="-40236144#3_1" departPos="47.17" departSpeed="0.00" departDelay="0.36" arrival="184.00" arrivalLane="48778505#2_1" arrivalPos="58.26" arrivalSpeed="15.72" duration="102.00" routeLength="1191.82" waitingTime="0.00" waitingCount="0" stopTime="0.00" timeLoss="21.76" rerouteNo="0" devices="tripinfo_veh157" vType="passenger" speedFactor="1.18" vaporized=""/>
    <tripinfo id="veh144" depart="75.00" departLane="48788485#8_2" departPos="0.16" departSpeed="0.00" departDelay="0.12" arrival="185.00" arrivalLane="-353939570#9_2" arrivalPos="72.93" arrivalSpeed="12.49" duration="110.00" routeLength="1129.78" waitingTime="11.00" waitingCount="1" stopTime="0.00" timeLoss="24.49" rerouteNo="0" devices="tripinfo_veh144" vType="passenger" speedFactor="0.96" vaporized=""/>
    <tripinfo id="veh239" depart="125.00" departLane="984521612#0_0" departPos="12.36" departSpeed="0.00" departDelay="0.72" arrival="185.00" arrivalLane="-48778476_1" arrivalPos="101.99" arrivalSpeed="12.92" duration="60.00" routeLength="514.22" waitingTime="0.00" waitingCount="0" stopTime="0.00" timeLoss="17.62" rerouteNo="0" devices="tripinfo_veh239" vType="passenger" speedFactor="1.02" vaporized=""/>
    <tripinfo id="veh87" depart="46.00" departLane="33913538#6_2" departPos="29.46" departSpeed="0.00" departDelay="0.76" arrival="186.00" arrivalLane="40314853#3_1" arrivalPos="25.28" arrivalSpeed="11.92" duration="140.00" routeLength="1528.87" waitingTime="0.00" waitingCount="0" stopTime="0.00" timeLoss="11.07" rerouteNo="0" devices="tripinfo_veh87" vType="passenger" speedFactor="0.87" vaporized=""/>
    <tripinfo id="veh223" depart="116.00" departLane="48778457#0_1" departPos="2.35" departSpeed="0.00" departDelay="0.04" arrival="188.00" arrivalLane="273836978#0_1" arrivalPos="13.78" arrivalSpeed="12.55" duration="72.00" routeLength="656.02" waitingTime="0.00" waitingCount="0" stopTime="0.00" timeLoss="16.85" rerouteNo="0" devices="tripinfo_veh223" vType="motorcycle" speedFactor="0.93" vaporized=""/>
    <personinfo id="ped15" depart="75.00" type="DEFAULT_PEDTYPE" speedFactor="1.08" duration="116.00" waitingTime="0.00" timeLoss="11.56" traveltime="116.00">
        <walk depart="75.00" departPos="0.00" arrival="191.00" arrivalPos="0.10" duration="116.00" routeLength="156.68" timeLoss="11.56" maxSpeed="1.50"/>
    </personinfo>
    <tripinfo id="veh37" depart="20.00" departLane="43544001#0_1" departPos="18.16" departSpeed="0.00" departDelay="0.76" arrival="192.00" arrivalLane="40236153#1_1" arrivalPos="105.33" arrivalSpeed="13.23" duration="172.00" routeLength="1998.78" waitingTime="0.00" waitingCount="0" stopTime="0.00" timeLoss="23.40" rerouteNo="0" devices="tripinfo_veh37" vType="emergency" speedFactor="1.00" vaporized=""/>
    <tripinfo id="veh26" depart="14.00" departLane="-671642318#0_1" departPos="51.00" departSpeed="0.00" departDelay="0.48" arrival="193.00" arrivalLane="-647262856_1" arrivalPos="411.78" arrivalSpeed="15.08" duration="179.00" routeLength="2441.92" waitingTime="0.00" waitingCount="0" stopTime="0.00" timeLoss="19.06" rerouteNo="0" devices="tripinfo_veh26" vType="passenger" speedFactor="1.12" vaporized=""/>
    <tripinfo id="veh32" depart="17.00" departLane="-945793486#1_0" departPos="29.48" departSpeed="0.00" departDelay="0.36" arrival="193.00" arrivalLane="222609004#1_1" arrivalPos="58.70" arrivalSpeed="6.26" duration="176.00" routeLength="1559.42" waitingTime="16.00" waitingCount="3" stopTime="0.00" timeLoss="64.91" rerouteNo="0" devices="tripinfo_veh32" vType="passenger" speedFactor="1.10" vaporized=""/>
    <tripinfo id="veh75" depart="39.00" departLane="40236144#3_1" departPos="2.70" departSpeed="0.00" departDelay="0.00" arrival="201.00" arrivalLane="-48736646#1_1" arrivalPos="156.36" arrivalSpeed="12.03" duration="162.00" routeLength="1588.24" waitingTime="0.00" waitingCount="0" stopTime="0.00" timeLoss="20.36" rerouteNo="0" devices="tripinfo_veh75" vType="passenger" speedFactor="0.91" vaporized=""/>
    <tripinfo id="veh131" depart="69.00" departLane="-48736614#0_1" departPos="31.68" departSpeed="0.00" departDelay="0.88" arrival="201.00" arrivalLane="43547579#0_1" arrivalPos="243.21" arrivalSpeed="12.64" duration="132.00" routeLength="1327.97" waitingTime="5.00" waitingCount="1" stopTime="0.00" timeLoss="32.00" rerouteNo="0" devices="tripinfo_veh131" vType="delivery" speedFactor="1.00" vaporized=""/>
    <tripinfo id="veh98" depart="51.00" departLane="48788485#0_1" departPos="269.98" departSpeed="0.00" departDelay="0.04" arrival="204.00" arrivalLane="48778500#0_1" arrivalPos="18.03" arrivalSpeed="9.30" duration="153.00" routeLength="1668.36" waitingTime="0.00" waitingCount="0" stopTime="0.00" timeLoss="15.48" rerouteNo="0" devices="tripinfo_veh98" vType="passenger" speedFactor="0.89" vaporized=""/>
    <personinfo id="ped5" depart="25.00" type="DEFAULT_PEDTYPE" speedFactor="1.04" duration="181.00" waitingTime="0.00" timeLoss="16.95" traveltime="181.00">
        <walk depart="25.00" departPos="0.00" arrival="206.00" arrivalPos="33.98" duration="181.00" routeLength="236.42" timeLoss="16.95" maxSpeed="1.44"/>
    </personinfo>
    <tripinfo id="veh76" depart="40.00" departLane="43547256#1_1" departPos="77.17" departSpeed="0.00" departDelay="0.48" arrival="206.00" arrivalLane="43546460#11_1" arrivalPos="10.11" arrivalSpeed="14.60" duration="166.00" routeLength="2246.42" waitingTime="0.00" waitingCount="0" stopTime="0.00" timeLoss="20.36" rerouteNo="0" devices="tripinfo_veh76" vType="passenger" speedFactor="1.14" vaporized=""/>
    <tripinfo id="veh238" depart="124.00" departLane="-43544001#7_1" departPos="20.26" departSpeed="0.00" departDelay="0.24" arrival="206.00" arrivalLane="647998062_1" arrivalPos="77.82" arrivalSpeed="12.55" duration="82.00" routeLength="821.40" waitingTime="0.00" waitingCount="0" stopTime="0.00" timeLoss="16.42" rerouteNo="0" devices="tripinfo_veh238" vType="passenger" speedFactor="0.97" vaporized=""/>
    <tripinfo id="veh92" depart="48.00" departLane="48778431#2_2" departPos="68.27" departSpeed="0.00" departDelay="0.16" arrival="207.00" arrivalLane="-1136119745_1" arrivalPos="22.49" arrivalSpeed="13.86" duration="159.00" routeLength="1695.00" waitingTime="3.00" waitingCount="1" stopTime="0.00" timeLoss="41.34" rerouteNo="0" devices="tripinfo_veh92" vType="passenger" speedFactor="1.13" vaporized=""/>
    <tripinfo id="veh109" depart="57.00" departLane="43544179#9_1" departPos="178.13" departSpeed="0.00" departDelay="0.32" arrival="207.00" arrivalLane="40265775#1_1" arrivalPos="76.38" arrivalSpeed="13.27" duration="150.00" routeLength="1707.50" waitingTime="0.00" waitingCount="0" stopTime="0.00" timeLoss="24.29" rerouteNo="0" devices="tripinfo_veh109" vType="passenger" speedFactor="1.01" vaporized=""/>
    <tripinfo id="veh108" depart="57.00" departLane="578560104#6_1" departPos="58.45" departSpeed="0.00" departDelay="0.84" arrival="212.00" arrivalLane="470210923#4_1" arrivalPos="79.54" arrivalSpeed="14.09" duration="155.00" routeLength="1309.55" waitingTime="43.00" waitingCount="1" stopTime="0.00" timeLoss="61.81" rerouteNo="0" devices="tripinfo_veh108" vType="motorcycle" speedFactor="1.04" vaporized=""/>
    <tripinfo id="veh143" depart="75.00" departLane="250295383#1_1" departPos="36.58" departSpeed="0.00" departDelay="0.64" arrival="215.00" arrivalLane="48736656#2_1" arrivalPos="51.77" arrivalSpeed="13.68" duration="140.00" routeLength="1556.38" waitingTime="0.00" waitingCount="0" stopTime="0.00" timeLoss="31.74" rerouteNo="0" devices="tripinfo_veh143" vType="passenger" speedFactor="1.06" vaporized=""/>
    <tripinfo id="veh7" depart="4.00" departLane="-E10_1" departPos="77.30" departSpeed="0.00" departDelay="0.36" arrival="217.00" arrivalLane="-264868333_1" arrivalPos="76.76" arrivalSpeed="15.09" duration="213.00" routeLength="2516.57" waitingTime="3.00" waitingCount="1" stopTime="0.00" timeLoss="45.64" rerouteNo="0" devices="tripinfo_veh7" vType="passenger" speedFactor="1.12" vaporized=""/>
    <tripinfo id="veh181" depart="95.00" departLane="48778526_1" departPos="9.11" departSpeed="0.00" departDelay="0.88" arrival="218.00" arrivalLane="-945794108_1" arrivalPos="20.90" arrivalSpeed="7.30" duration="123.00" routeLength="1321.72" waitingTime="0.00" waitingCount="0" stopTime="0.00" timeLoss="23.95" rerouteNo="0" devices="tripinfo_veh181" vType="motorcycle" speedFactor="1.01" vaporized=""/>
    <tripinfo id="veh286" depart="149.00" departLane="-40236220#2_1" departPos="12.37" departSpeed="0.00" departDelay="0.28" arrival="218.00" arrivalLane="40236203#2_1" arrivalPos="10.97" arrivalSpeed="13.12" duration="69.00" routeLength="511.62" waitingTime="9.00" waitingCount="1" stopTime="0.00" timeLoss="26.28" rerouteNo="0" devices="tripinfo_veh286" vType="delivery" speedFactor="0.97" vaporized=""/>
    <tripinfo id="veh328" depart="171.00" departLane="48736642_1" departPos="22.49" departSpeed="0.00" departDelay="0.44" arrival="218.00" arrivalLane="492965073#10_2" arrivalPos="59.45" arrivalSpeed="13.63" duration="47.00" routeLength="552.05" waitingTime="0.00" waitingCount="0" stopTime="0.00" timeLoss="9.14" rerouteNo="0" devices="tripinfo_veh328" vType="motorcycle" speedFactor="1.11" vaporized=""/>
    <tripinfo id="veh48" depart="25.00" departLane="-43546519#2_1" departPos="2.97" departSpeed="0.00" departDelay="0.04" arrival="221.00" arrivalLane="43547256#0_1" arrivalPos="391.85" arrivalSpeed="12.63" duration="196.00" routeLength="2248.58" waitingTime="0.00" waitingCount="0" stopTime="0.00" timeLoss="26.58" rerouteNo="0" devices="tripinfo_veh48" vType="delivery" speedFactor="0.98" vaporized=""/>
    <tripinfo id="veh303" depart="158.00" departLane="-43544184#4_1" departPos="1.96" departSpeed="0.00" departDelay="0.44" arrival="222.00" arrivalLane="-43544138#2_1" arrivalPos="0.25" arrivalSpeed="12.93" duration="64.00" routeLength="657.47" waitingTime="0.00" waitingCount="0" stopTime="0.00" timeLoss="13.93" rerouteNo="0" devices="tripinfo_veh303" vType="passenger" speedFactor="1.00" vaporized=""/>
    <tripinfo id="veh20" depart="11.00" departLane="48778474#0_1" departPos="2.56" departSpeed="0.00" departDelay="0.60" arrival="225.00" arrivalLane="-222605084#0_1" arrivalPos="0.21" arrivalSpeed="5.33" duration="214.00" routeLength="2082.65" waitingTime="4.00" waitingCount="1" stopTime="0.00" timeLoss="38.46" rerouteNo="0" devices="tripinfo_veh20" vType="passenger" speedFactor="1.03" vaporized=""/>