<?xml version="1.0" encoding="UTF-8"?>

<!-- generated on 2025-06-12 11:00:56 by Eclipse SUMO sumo Version 1.22.0
<sumoConfiguration xmlns:xsi="http://www.w3.org/2001/XMLSchema-instance" xsi:noNamespaceSchemaLocation="http://sumo.dlr.de/xsd/sumoConfiguration.xsd">

    <input>
        <net-file value="E:/licenta/oras-mediu/2025-06-05-11-45-23/osm.net.xml"/>
        <route-files value="E:/licenta/oras-mediu/2025-06-05-11-45-23/full.rou.xml,E:/licenta/oras-mediu/2025-06-05-11-45-23/ ped.rou.xml,E:/licenta/oras-mediu/2025-06-05-11-45-23/ truck.rou.xml"/>
        <additional-files value="E:/licenta/oras-mediu/2025-06-05-11-45-23/osm.poly.xml,E:/licenta/oras-mediu/2025-06-05-11-45-23/ vtypes.xml"/>
    </input>

    <output>
        <summary-output value="E:/licenta/oras-mediu/2025-06-05-11-45-23/summary.xml"/>
        <tripinfo-output value="E:/licenta/oras-mediu/2025-06-05-11-45-23/tripinfo.xml"/>
    </output>

    <processing>
        <ignore-route-errors value="true"/>
        <tls.actuated.jam-threshold value="30"/>
    </processing>

    <routing>
        <device.rerouting.adaptation-steps value="18"/>
        <device.rerouting.adaptation-interval value="10"/>
    </routing>

    <report>
        <verbose value="true"/>
        <duration-log.statistics value="true"/>
        <no-step-log value="true"/>
    </report>

    <traci_server>
        <remote-port value="61879"/>
    </traci_server>

    <gui_only>
        <gui-settings-file value="E:/licenta/oras-mediu/2025-06-05-11-45-23/osm.view.xml"/>
    </gui_only>

</sumoConfiguration>
-->

<tripinfos xmlns:xsi="http://www.w3.org/2001/XMLSchema-instance" xsi:noNamespaceSchemaLocation="http://sumo.dlr.de/xsd/tripinfo_file.xsd">
    <tripinfo id="veh70" depart="33.00" departLane="48797766#0_1" departPos="5.31" departSpeed="0.00" departDelay="0.80" arrival="41.00" arrivalLane="48797766#1_1" arrivalPos="31.54" arrivalSpeed="12.80" duration="8.00" routeLength="57.79" waitingTime="0.00" waitingCount="0" stopTime="0.00" timeLoss="2.46" rerouteNo="0" devices="tripinfo_veh70" vType="motorcycle" speedFactor="0.94" vaporized=""/>
    <tripinfo id="veh7" depart="4.00" departLane="48736612#5_1" departPos="0.09" departSpeed="0.00" departDelay="0.78" arrival="59.00" arrivalLane="48736624#0_1" arrivalPos="117.89" arrivalSpeed="12.44" duration="55.00" routeLength="495.55" waitingTime="0.00" waitingCount="0" stopTime="0.00" timeLoss="12.96" rerouteNo="0" devices="tripinfo_veh7" vType="passenger" speedFactor="0.92" vaporized=""/>
    <tripinfo id="veh18" depart="9.00" departLane="-43546789#3_1" departPos="2.60" departSpeed="0.00" departDelay="0.72" arrival="78.00" arrivalLane="-40236220#0_1" arrivalPos="33.44" arrivalSpeed="11.78" duration="69.00" routeLength="660.65" waitingTime="0.00" waitingCount="0" stopTime="0.00" timeLoss="11.89" rerouteNo="0" devices="tripinfo_veh18" vType="passenger" speedFactor="0.87" vaporized=""/>
    <tripinfo id="veh108" depart="50.00" departLane="-48736641_1" departPos="16.39" departSpeed="0.00" departDelay="0.32" arrival="78.00" arrivalLane="48797769_1" arrivalPos="15.35" arrivalSpeed="13.42" duration="28.00" routeLength="293.03" waitingTime="0.00" waitingCount="0" stopTime="0.00" timeLoss="5.76" rerouteNo="0" devices="tripinfo_veh108" vType="passenger" speedFactor="1.01" vaporized=""/>
    <tripinfo id="veh56" depart="26.00" departLane="43544001#8_1" departPos="26.67" departSpeed="0.00" departDelay="0.24" arrival="86.00" arrivalLane="-48778526_1" arrivalPos="97.35" arrivalSpeed="13.08" duration="60.00" routeLength="608.54" waitingTime="0.00" waitingCount="0" stopTime="0.00" timeLoss="11.60" rerouteNo="0" devices="tripinfo_veh56" vType="passenger" speedFactor="0.95" vaporized=""/>
    <tripinfo id="veh5" depart="3.00" departLane="43544624#1_1" departPos="23.18" departSpeed="0.00" departDelay="0.70" arrival="89.00" arrivalLane="-43544001#13_1" arrivalPos="78.45" arrivalSpeed="13.33" duration="86.00" routeLength="774.18" waitingTime="9.00" waitingCount="1" stopTime="0.00" timeLoss="29.02" rerouteNo="0" devices="tripinfo_veh5" vType="passenger" speedFactor="1.02" vaporized=""/>
    <personinfo id="ped14" depart="70.00" type="DEFAULT_PEDTYPE" speedFactor="1.04" duration="22.00" waitingTime="0.00" timeLoss="3.58" traveltime="22.00">
        <walk depart="70.00" departPos="0.00" arrival="92.00" arrivalPos="5.45" duration="22.00" routeLength="26.60" timeLoss="3.58" maxSpeed="1.44"/>
    </personinfo>
    <tripinfo id="veh97" depart="45.00" departLane="48736620#1_1" departPos="3.79" departSpeed="0.00" departDelay="0.38" arrival="108.00" arrivalLane="-48736607#0_1" arrivalPos="36.67" arrivalSpeed="13.47" duration="63.00" routeLength="687.70" waitingTime="0.00" waitingCount="0" stopTime="0.00" timeLoss="12.63" rerouteNo="0" devices="tripinfo_veh97" vType="passenger" speedFactor="1.02" vaporized=""/>
    <tripinfo id="veh6" depart="3.00" departLane="E6_1" departPos="23.15" departSpeed="0.00" departDelay="0.24" arrival="109.00" arrivalLane="-48778457#0_1" arrivalPos="3.64" arrivalSpeed="13.87" duration="106.00" routeLength="1035.11" waitingTime="5.00" waitingCount="1" stopTime="0.00" timeLoss="30.18" rerouteNo="0" devices="tripinfo_veh6" vType="delivery" speedFactor="1.05" vaporized=""/>
    <tripinfo id="veh21" depart="10.00" departLane="143207979#2_1" departPos="1.16" departSpeed="0.00" departDelay="0.34" arrival="114.00" arrivalLane="647998060#0_1" arrivalPos="61.50" arrivalSpeed="11.67" duration="104.00" routeLength="1011.36" waitingTime="0.00" waitingCount="0" stopTime="0.00" timeLoss="18.09" rerouteNo="0" devices="tripinfo_veh21" vType="passenger" speedFactor="0.89" vaporized=""/>
    <tripinfo id="veh136" depart="63.00" departLane="-48778478#0_1" departPos="0.16" departSpeed="0.00" departDelay="0.44" arrival="121.00" arrivalLane="40266907#1_1" arrivalPos="33.57" arrivalSpeed="11.54" duration="58.00" routeLength="503.21" waitingTime="0.00" waitingCount="0" stopTime="0.00" timeLoss="11.39" rerouteNo="0" devices="tripinfo_veh136" vType="passenger" speedFactor="0.87" vaporized=""/>
    <personinfo id="ped20" depart="100.00" type="DEFAULT_PEDTYPE" speedFactor="1.09" duration="23.00" waitingTime="0.00" timeLoss="3.35" traveltime="23.00">
        <walk depart="100.00" departPos="0.00" arrival="123.00" arrivalPos="22.27" duration="23.00" routeLength="29.84" timeLoss="3.35" maxSpeed="1.52"/>
    </personinfo>
    <tripinfo id="veh130" depart="60.00" departLane="-48736613#2_1" departPos="119.50" departSpeed="0.00" departDelay="0.20" arrival="124.00" arrivalLane="-48736644_1" arrivalPos="142.05" arrivalSpeed="15.26" duration="64.00" routeLength="720.68" waitingTime="0.00" waitingCount="0" stopTime="0.00" timeLoss="14.81" rerouteNo="0" devices="tripinfo_veh130" vType="passenger" speedFactor="1.13" vaporized=""/>
    <tripinfo id="veh153" depart="71.00" departLane="647226815#1_1" departPos="9.18" departSpeed="0.00" departDelay="0.62" arrival="124.00" arrivalLane="-43546039#1_1" arrivalPos="97.78" arrivalSpeed="11.50" duration="53.00" routeLength="464.37" waitingTime="0.00" waitingCount="0" stopTime="0.00" timeLoss="12.60" rerouteNo="0" devices="tripinfo_veh153" vType="passenger" speedFactor="0.89" vaporized=""/>
    <tripinfo id="veh131" depart="61.00" departLane="40314583#7_1" departPos="5.19" departSpeed="0.00" departDelay="0.74" arrival="130.00" arrivalLane="-143207982#8_1" arrivalPos="38.97" arrivalSpeed="13.12" duration="69.00" routeLength="707.08" waitingTime="0.00" waitingCount="0" stopTime="0.00" timeLoss="13.80" rerouteNo="0" devices="tripinfo_veh131" vType="passenger" speedFactor="0.97" vaporized=""/>
    <tripinfo id="veh123" depart="57.00" departLane="-578560104#4_1" departPos="12.57" departSpeed="0.00" departDelay="0.42" arrival="131.00" arrivalLane="48778508#5_1" arrivalPos="31.95" arrivalSpeed="15.34" duration="74.00" routeLength="942.70" waitingTime="0.00" waitingCount="0" stopTime="0.00" timeLoss="14.38" rerouteNo="0" devices="tripinfo_veh123" vType="passenger" speedFactor="1.18" vaporized=""/>
    <tripinfo id="veh170" depart="79.00" departLane="-222605084#7_1" departPos="26.98" departSpeed="0.00" departDelay="0.80" arrival="136.00" arrivalLane="-353939570#7_2" arrivalPos="11.97" arrivalSpeed="9.02" duration="57.00" routeLength="256.05" waitingTime="0.00" waitingCount="0" stopTime="0.00" timeLoss="13.24" rerouteNo="0" devices="tripinfo_veh170" vType="emergency" speedFactor="1.00" vaporized=""/>
    <tripinfo id="veh50" depart="23.00" departLane="222609002#2_1" departPos="7.18" departSpeed="0.00" departDelay="0.00" arrival="139.00" arrivalLane="48778478#1_1" arrivalPos="66.33" arrivalSpeed="14.54" duration="116.00" routeLength="1160.50" waitingTime="1.00" waitingCount="1" stopTime="0.00" timeLoss="26.39" rerouteNo="0" devices="tripinfo_veh50" vType="passenger" speedFactor="1.12" vaporized=""/>
    <tripinfo id="veh229" depart="106.00" departLane="48788485#0_1" departPos="65.50" departSpeed="0.00" departDelay="0.66" arrival="146.00" arrivalLane="48788485#3_1" arrivalPos="108.67" arrivalSpeed="11.58" duration="40.00" routeLength="419.83" waitingTime="0.00" waitingCount="0" stopTime="0.00" timeLoss="4.54" rerouteNo="0" devices="tripinfo_veh229" vType="passenger" speedFactor="0.87" vaporized=""/>
    <tripinfo id="veh281" depart="130.00" departLane="40305706#0_1" departPos="30.80" departSpeed="0.00" departDelay="0.74" arrival="148.00" arrivalLane="-40236153#0_1" arrivalPos="39.90" arrivalSpeed="14.52" duration="18.00" routeLength="191.52" waitingTime="0.00" waitingCount="0" stopTime="0.00" timeLoss="3.65" rerouteNo="0" devices="tripinfo_veh281" vType="delivery" speedFactor="1.08" vaporized=""/>
    <tripinfo id="veh82" depart="38.00" departLane="-48778449#2_1" departPos="0.94" departSpeed="0.00" departDelay="0.28" arrival="149.00" arrivalLane="43546343#2_1" arrivalPos="61.97" arrivalSpeed="14.94" duration="111.00" routeLength="1269.31" waitingTime="0.00" waitingCount="0" stopTime="0.00" timeLoss="22.06" rerouteNo="0" devices="tripinfo_veh82" vType="passenger" speedFactor="1.08" vaporized=""/>
    <tripinfo id="veh95" depart="44.00" departLane="-859732801#1_1" departPos="23.99" departSpeed="0.00" departDelay="0.30" arrival="149.00" arrivalLane="40236259_1" arrivalPos="166.86" arrivalSpeed="10.56" duration="105.00" routeLength="1082.74" waitingTime="0.00" waitingCount="0" stopTime="0.00" timeLoss="18.25" rerouteNo="0" devices="tripinfo_veh95" vType="motorcycle" speedFactor="0.94" vaporized=""/>
    <tripinfo id="veh13" depart="6.00" departLane="-40306162#1_1" departPos="29.53" departSpeed="0.00" departDelay="0.02" arrival="150.00" arrivalLane="-48736638#0_1" arrivalPos="65.36" arrivalSpeed="13.80" duration="144.00" routeLength="1530.13" waitingTime="0.00" waitingCount="0" stopTime="0.00" timeLoss="29.22" rerouteNo="0" devices="tripinfo_veh13" vType="emergency" speedFactor="1.00" vaporized=""/>
    <tripinfo id="veh119" depart="55.00" departLane="-1136289989_1" departPos="14.40" departSpeed="0.00" departDelay="0.26" arrival="150.00" arrivalLane="-48778498#1_1" arrivalPos="23.69" arrivalSpeed="12.72" duration="95.00" routeLength="1077.72" waitingTime="0.00" waitingCount="0" stopTime="0.00" timeLoss="15.71" rerouteNo="0" devices="tripinfo_veh119" vType="motorcycle" speedFactor="1.04" vaporized=""/>
    <tripinfo id="veh169" depart="78.00" departLane="-40236153#0_1" departPos="0.22" departSpeed="0.00" departDelay="0.26" arrival="152.00" arrivalLane="48736647#1_1" arrivalPos="90.38" arrivalSpeed="14.55" duration="74.00" routeLength="776.90" waitingTime="0.00" waitingCount="0" stopTime="0.00" timeLoss="19.07" rerouteNo="0" devices="tripinfo_veh169" vType="passenger" speedFactor="1.07" vaporized=""/>
    <tripinfo id="veh192" depart="89.00" departLane="-43544001#10_1" departPos="5.96" departSpeed="0.00" departDelay="0.68" arrival="153.00" arrivalLane="-143207979#2_1" arrivalPos="38.82" arrivalSpeed="13.85" duration="64.00" routeLength="727.60" waitingTime="0.00" waitingCount="0" stopTime="0.00" timeLoss="14.13" rerouteNo="0" devices="tripinfo_veh192" vType="delivery" speedFactor="1.08" vaporized=""/>
    <tripinfo id="veh81" depart="38.00" departLane="48788485#6_1" departPos="69.10" departSpeed="0.00" departDelay="0.74" arrival="157.00" arrivalLane="-43544197#0_1" arrivalPos="48.34" arrivalSpeed="11.56" duration="119.00" routeLength="1170.52" waitingTime="0.00" waitingCount="0" stopTime="0.00" timeLoss="20.17" rerouteNo="0" devices="tripinfo_veh81" vType="passenger" speedFactor="0.89" vaporized=""/>
    <tripinfo id="veh63" depart="29.00" departLane="-48778503#1_1" departPos="0.66" departSpeed="0.00" departDelay="0.02" arrival="158.00" arrivalLane="-40269009#1_1" arrivalPos="27.05" arrivalSpeed="13.00" duration="129.00" routeLength="1449.53" waitingTime="0.00" waitingCount="0" stopTime="0.00" timeLoss="21.95" rerouteNo="0" devices="tripinfo_veh63" vType="passenger" speedFactor="1.09" vaporized=""/>
    <personinfo id="ped25" depart="125.00" type="DEFAULT_PEDTYPE" speedFactor="1.10" duration="35.00" waitingTime="0.00" timeLoss="4.09" traveltime="35.00">
        <walk depart="125.00" departPos="0.00" arrival="160.00" arrivalPos="42.60" duration="35.00" routeLength="47.34" timeLoss="4.09" maxSpeed="1.53"/>
    </personinfo>
    <personinfo id="ped0" depart="0.00" type="DEFAULT_PEDTYPE" speedFactor="1.03" duration="161.00" waitingTime="0.00" timeLoss="22.61" traveltime="161.00">
        <walk depart="0.00" departPos="0.00" arrival="161.00" arrivalPos="28.59" duration="161.00" routeLength="198.03" timeLoss="22.61" maxSpeed="1.43"/>
    </personinfo>
    <personinfo id="ped6" depart="30.00" type="DEFAULT_PEDTYPE" speedFactor="1.04" duration="131.00" waitingTime="0.00" timeLoss="14.09" traveltime="131.00">
        <walk depart="30.00" departPos="0.00" arrival="161.00" arrivalPos="89.59" duration="131.00" routeLength="168.29" timeLoss="14.09" maxSpeed="1.44"/>
    </personinfo>
    <tripinfo id="veh113" depart="52.00" departLane="-984508804_0" departPos="1.79" departSpeed="0.00" departDelay="0.02" arrival="161.00" arrivalLane="43546105#0_1" arrivalPos="198.99" arrivalSpeed="14.95" duration="109.00" routeLength="1342.11" waitingTime="0.00" waitingCount="0" stopTime="0.00" timeLoss="16.79" rerouteNo="0" devices="tripinfo_veh113" vType="passenger" speedFactor="1.11" vaporized=""/>
    <tripinfo id="veh241" depart="111.00" departLane="48736610#2_1" departPos="18.47" departSpeed="0.00" departDelay="0.14" arrival="161.00" arrivalLane="48736632#0_1" arrivalPos="108.22" arrivalSpeed="12.96" duration="50.00" routeLength="434.42" waitingTime="4.00" waitingCount="1" stopTime="0.00" timeLoss="17.85" rerouteNo="0" devices="tripinfo_veh241" vType="passenger" speedFactor="1.02" vaporized=""/>
    <tripinfo id="veh146" depart="68.00" departLane="43544184#3_1" departPos="72.98" departSpeed="0.00" departDelay="0.84" arrival="167.00" arrivalLane="222609002#1_1" arrivalPos="24.71" arrivalSpeed="13.31" duration="99.00" routeLength="972.19" waitingTime="0.00" waitingCount="0" stopTime="0.00" timeLoss="16.58" rerouteNo="0" devices="tripinfo_veh146" vType="passenger" speedFactor="1.03" vaporized=""/>
    <tripinfo id="veh157" depart="73.00" departLane="1250915720#0_1" departPos="1.04" departSpeed="0.00" departDelay="0.78" arrival="171.00" arrivalLane="-223883703_0" arrivalPos="83.93" arrivalSpeed="5.21" duration="98.00" routeLength="911.71" waitingTime="0.00" waitingCount="0" stopTime="0.00" timeLoss="10.44" rerouteNo="0" devices="tripinfo_veh157" vType="passenger" speedFactor="1.10" vaporized=""/>
    <tripinfo id="veh8" depart="4.00" departLane="-1136279388_0" departPos="22.55" departSpeed="0.00" departDelay="0.32" arrival="173.00" arrivalLane="-43546343#2_1" arrivalPos="60.11" arrivalSpeed="14.99" duration="169.00" routeLength="1620.94" waitingTime="33.00" waitingCount="2" stopTime="0.00" timeLoss="61.36" rerouteNo="0" devices="tripinfo_veh8" vType="passenger" speedFactor="1.12" vaporized=""/>
    <tripinfo id="veh190" depart="88.00" departLane="945794110_1" departPos="7.16" departSpeed="0.00" departDelay="0.60" arrival="173.00" arrivalLane="-92198452#2_1" arrivalPos="56.65" arrivalSpeed="5.32" duration="85.00" routeLength="444.49" waitingTime="0.00" waitingCount="0" stopTime="0.00" timeLoss="7.25" rerouteNo="0" devices="tripinfo_veh190" vType="bicycle" speedFactor="1.04" vaporized=""/>
    <tripinfo id="veh73" depart="34.00" departLane="222605084#5_1" departPos="4.02" departSpeed="0.00" departDelay="0.42" arrival="174.00" arrivalLane="-33909936#3_1" arrivalPos="25.37" arrivalSpeed="12.73" duration="140.00" routeLength="1284.69" waitingTime="0.00" waitingCount="0" stopTime="0.00" timeLoss="18.35" rerouteNo="0" devices="tripinfo_veh73" vType="passenger" speedFactor="1.06" vaporized=""/>
    <personinfo id="ped3" depart="15.00" type="DEFAULT_PEDTYPE" speedFactor="0.93" duration="162.00" waitingTime="0.00" timeLoss="16.54" traveltime="162.00">
        <walk depart="15.00" departPos="0.00" arrival="177.00" arrivalPos="41.53" duration="162.00" routeLength="188.41" timeLoss="16.54" maxSpeed="1.30"/>
    </personinfo>
    <tripinfo id="veh75" depart="35.00" departLane="43544179#0_1" departPos="0.26" departSpeed="0.00" departDelay="0.50" arrival="178.00" arrivalLane="48778514#2_1" arrivalPos="129.42" arrivalSpeed="12.58" duration="143.00" routeLength="1461.43" waitingTime="1.00" waitingCount="1" stopTime="0.00" timeLoss="23.59" rerouteNo="0" devices="tripinfo_veh75" vType="passenger" speedFactor="0.91" vaporized=""/>
    <tripinfo id="veh20" depart="10.00" departLane="-48736666#2_1" departPos="53.71" departSpeed="0.00" departDelay="0.80" arrival="179.00" arrivalLane="143207982#1_1" arrivalPos="37.78" arrivalSpeed="15.48" duration="169.00" routeLength="1029.31" waitingTime="78.00" waitingCount="2" stopTime="0.00" timeLoss="100.75" rerouteNo="0" devices="tripinfo_veh20" vType="passenger" speedFactor="1.13" vaporized=""/>
    <tripinfo id="veh67" depart="31.00" departLane="289113877#1_1" departPos="66.70" departSpeed="0.00" departDelay="0.18" arrival="179.00" arrivalLane="43544179#11_1" arrivalPos="85.20" arrivalSpeed="13.38" duration="148.00" routeLength="1707.81" waitingTime="0.00" waitingCount="0" stopTime="0.00" timeLoss="20.14" rerouteNo="0" devices="tripinfo_veh67" vType="passenger" speedFactor="0.98" vaporized=""/>
    <tripinfo id="veh185" depart="86.00" departLane="40236144#3_1" departPos="84.10" departSpeed="0.00" departDelay="0.90" arrival="180.00" arrivalLane="1136283381_1" arrivalPos="22.82" arrivalSpeed="7.44" duration="94.00" routeLength="785.38" waitingTime="2.00" waitingCount="1" stopTime="0.00" timeLoss="16.78" rerouteNo="0" devices="tripinfo_veh185" vType="passenger" speedFactor="0.92" vaporized=""/>
    <tripinfo id="veh232" depart="107.00" departLane="-984508803_0" departPos="5.92" departSpeed="0.00" departDelay="0.28" arrival="185.00" arrivalLane="40265777#1_1" arrivalPos="65.39" arrivalSpeed="14.24" duration="78.00" routeLength="877.78" waitingTime="0.00" waitingCount="0" stopTime="0.00" timeLoss="13.88" rerouteNo="0" devices="tripinfo_veh232" vType="passenger" speedFactor="1.05" vaporized=""/>
    <tripinfo id="veh310" depart="143.00" departLane="43544138#3_1" departPos="34.13" departSpeed="0.00" departDelay="0.40" arrival="185.00" arrivalLane="-48778526_1" arrivalPos="97.35" arrivalSpeed="10.67" duration="42.00" routeLength="356.08" waitingTime="0.00" waitingCount="0" stopTime="0.00" timeLoss="8.99" rerouteNo="0" devices="tripinfo_veh310" vType="passenger" speedFactor="0.85" vaporized=""/>
    <tripinfo id="veh183" depart="85.00" departLane="354252035_1" departPos="89.68" departSpeed="0.00" departDelay="0.82" arrival="187.00" arrivalLane="40304754#5_1" arrivalPos="153.80" arrivalSpeed="13.00" duration="102.00" routeLength="1180.86" waitingTime="0.00" waitingCount="0" stopTime="0.00" timeLoss="14.66" rerouteNo="0" devices="tripinfo_veh183" vType="motorcycle" speedFactor="1.00" vaporized=""/>
    <tripinfo id="veh187" depart="87.00" departLane="-48736613#0_1" departPos="24.59" departSpeed="0.00" departDelay="0.98" arrival="187.00" arrivalLane="-223942064#0.371_0" arrivalPos="264.48" arrivalSpeed="14.67" duration="100.00" routeLength="1352.53" waitingTime="0.00" waitingCount="0" stopTime="0.00" timeLoss="9.80" rerouteNo="0" devices="tripinfo_veh187" vType="passenger" speedFactor="1.09" vaporized=""/>
    <tripinfo id="veh57" depart="27.00" departLane="-174818015_0" departPos="246.25" departSpeed="0.00" departDelay="0.78" arrival="190.00" arrivalLane="353939585#1_1" arrivalPos="304.47" arrivalSpeed="13.98" duration="163.00" routeLength="1481.93" waitingTime="36.00" waitingCount="2" stopTime="0.00" timeLoss="53.72" rerouteNo="0" devices="tripinfo_veh57" vType="passenger" speedFactor="1.02" vaporized=""/>
    <tripinfo id="veh78" depart="36.00" departLane="578560104#2_1" departPos="64.77" departSpeed="0.00" departDelay="0.12" arrival="190.00" arrivalLane="-43544179#5_1" arrivalPos="42.26" arrivalSpeed="12.98" duration="154.00" routeLength="1751.95" waitingTime="0.00" waitingCount="0" stopTime="0.00" timeLoss="23.03" rerouteNo="0" devices="tripinfo_veh78" vType="emergency" speedFactor="1.00" vaporized=""/>
    <tripinfo id="veh248" depart="115.00" departLane="354252035_1" departPos="22.57" departSpeed="0.00" departDelay="0.92" arrival="190.00" arrivalLane="43544197#7_1" arrivalPos="49.46" arrivalSpeed="12.45" duration="75.00" routeLength="751.17" waitingTime="0.00" waitingCount="0" stopTime="0.00" timeLoss="16.71" rerouteNo="0" devices="tripinfo_veh248" vType="delivery" speedFactor="0.97" vaporized=""/>
    <tripinfo id="veh4" depart="2.00" departLane="-40314853#2_1" departPos="1.55" departSpeed="0.00" departDelay="0.16" arrival="191.00" arrivalLane="-48778441#2_1" arrivalPos="16.22" arrivalSpeed="11.79" duration="189.00" routeLength="1390.38" waitingTime="46.00" waitingCount="1" stopTime="0.00" timeLoss="78.10" rerouteNo="0" devices="tripinfo_veh4" vType="passenger" speedFactor="0.94" vaporized=""/>
    <tripinfo id="veh9" depart="5.00" departLane="-43546105#3_1" departPos="16.43" departSpeed="0.00" departDelay="0.86" arrival="196.00" arrivalLane="48778478#2_1" arrivalPos="30.02" arrivalSpeed="12.32" duration="191.00" routeLength="1658.78" waitingTime="22.00" waitingCount="1" stopTime="0.00" timeLoss="52.93" rerouteNo="0" devices="tripinfo_veh9" vType="passenger" speedFactor="0.90" vaporized=""/>
    <tripinfo id="veh53" depart="25.00" departLane="43547256#2_1" departPos="84.99" departSpeed="0.00" departDelay="0.62" arrival="196.00" arrivalLane="48778443#1_1" arrivalPos="92.66" arrivalSpeed="13.00" duration="171.00" routeLength="1805.07" waitingTime="0.00" waitingCount="0" stopTime="0.00" timeLoss="33.79" rerouteNo="0" devices="tripinfo_veh53" vType="delivery" speedFactor="0.99" vaporized=""/>
    <tripinfo id="veh156" depart="72.00" departLane="40329447_1" departPos="6.63" departSpeed="0.00" departDelay="0.24" arrival="196.00" arrivalLane="43546789#3_1" arrivalPos="80.36" arrivalSpeed="10.73" duration="124.00" routeLength="1012.36" waitingTime="0.00" waitingCount="0" stopTime="0.00" timeLoss="52.72" rerouteNo="0" devices="tripinfo_veh156" vType="passenger" speedFactor="1.07" vaporized=""/>
    <tripinfo id="veh69" depart="32.00" departLane="48736621#2_1" departPos="10.39" departSpeed="0.00" departDelay="0.26" arrival="197.00" arrivalLane="258551317_1" arrivalPos="85.97" arrivalSpeed="13.55" duration="165.00" routeLength="1615.71" waitingTime="0.00" waitingCount="0" stopTime="0.00" timeLoss="44.20" rerouteNo="0" devices="tripinfo_veh69" vType="passenger" speedFactor="1.01" vaporized=""/>
    <tripinfo id="veh230" depart="107.00" departLane="-40330575#4_1" departPos="1.87" departSpeed="0.00" departDelay="1.20" arrival="197.00" arrivalLane="-353939570#9_1" arrivalPos="72.93" arrivalSpeed="12.62" duration="90.00" routeLength="986.82" waitingTime="0.00" waitingCount="0" stopTime="0.00" timeLoss="12.53" rerouteNo="0" devices="tripinfo_veh230" vType="passenger" speedFactor="0.95" vaporized=""/>
    <tripinfo id="veh336" depart="155.00" departLane="223883703_0" departPos="73.45" departSpeed="0.00" departDelay="0.44" arrival="197.00" arrivalLane="354259933#3_1" arrivalPos="57.36" arrivalSpeed="12.60" duration="42.00" routeLength="412.13" waitingTime="1.00" waitingCount="1" stopTime="0.00" timeLoss="9.73" rerouteNo="0" devices="tripinfo_veh336" vType="emergency" speedFactor="1.00" vaporized=""/>
    <tripinfo id="veh85" depart="40.00" departLane="354252043_1" departPos="22.95" departSpeed="0.00" departDelay="0.90" arrival="198.00" arrivalLane="48778431#10_1" arrivalPos="349.08" arrivalSpeed="13.36" duration="158.00" routeLength="1687.98" waitingTime="6.00" waitingCount="1" stopTime="0.00" timeLoss="35.40" rerouteNo="0" devices="tripinfo_veh85" vType="delivery" speedFactor="1.03" vaporized=""/>
    <personinfo id="ped21" depart="105.00" type="DEFAULT_PEDTYPE" speedFactor="0.86" duration="96.00" waitingTime="0.00" timeLoss="11.48" traveltime="96.00">
        <walk depart="105.00" departPos="0.00" arrival="201.00" arrivalPos="32.59" duration="96.00" routeLength="100.47" timeLoss="11.48" maxSpeed="1.19"/>
    </personinfo>
    <tripinfo id="veh33" depart="16.00" departLane="-48736611#1_1" departPos="2.68" departSpeed="0.00" departDelay="0.82" arrival="201.00" arrivalLane="40269009#0_1" arrivalPos="22.67" arrivalSpeed="11.56" duration="185.00" routeLength="1704.48" waitingTime="19.00" waitingCount="2" stopTime="0.00" timeLoss="56.18" rerouteNo="0" devices="tripinfo_veh33" vType="passenger" speedFactor="1.04" vaporized=""/>
    <tripinfo id="veh14" depart="7.00" departLane="-43546460#2_1" departPos="13.01" departSpeed="0.00" departDelay="0.56" arrival="202.00" arrivalLane="43544197#7_1" arrivalPos="49.46" arrivalSpeed="14.00" duration="195.00" routeLength="2232.72" waitingTime="4.00" waitingCount="1" stopTime="0.00" timeLoss="31.46" rerouteNo="0" devices="tripinfo_veh14" vType="passenger" speedFactor="1.02" vaporized=""/>
    <tripinfo id="veh83" depart="39.00" departLane="647677163_1" departPos="20.93" departSpeed="0.00" departDelay="0.82" arrival="202.00" arrivalLane="984508804_0" arrivalPos="26.89" arrivalSpeed="4.86" duration="163.00" routeLength="1755.04" waitingTime="0.00" waitingCount="0" stopTime="0.00" timeLoss="33.17" rerouteNo="0" devices="tripinfo_veh83" vType="passenger" speedFactor="1.03" vaporized=""/>
    <tripinfo id="veh258" depart="119.00" departLane="43544001#5_1" departPos="9.33" departSpeed="0.00" departDelay="0.32" arrival="203.00" arrivalLane="-383582506_0" arrivalPos="44.83" arrivalSpeed="5.31" duration="84.00" routeLength="837.34" waitingTime="0.00" waitingCount="0" stopTime="0.00" timeLoss="15.18" rerouteNo="0" devices="tripinfo_veh258" vType="passenger" speedFactor="1.02" vaporized=""/>
    <tripinfo id="veh216" depart="100.00" departLane="43546935#1_1" departPos="35.62" departSpeed="0.00" departDelay="0.64" arrival="204.00" arrivalLane="859735387#1_0" arrivalPos="30.39" arrivalSpeed="4.97" duration="104.00" routeLength="684.02" waitingTime="17.00" waitingCount="1" stopTime="0.00" timeLoss="38.16" rerouteNo="0" devices="tripinfo_veh216" vType="passenger" speedFactor="1.00" vaporized=""/>
    <tripinfo id="veh340" depart="157.00" departLane="-48736616#1_1" departPos="16.92" departSpeed="0.00" departDelay="0.60" arrival="204.00" arrivalLane="-48736632#0_1" arrivalPos="98.98" arrivalSpeed="12.76" duration="47.00" routeLength="375.87" waitingTime="3.00" waitingCount="1" stopTime="0.00" timeLoss="16.82" rerouteNo="0" devices="tripinfo_veh340" vType="passenger" speedFactor="1.00" vaporized=""/>
    <tripinfo id="veh16" depart="8.00" departLane="-48736647#1_1" departPos="80.23" departSpeed="0.00" departDelay="0.64" arrival="208.00" arrivalLane="994065252_0" arrivalPos="159.63" arrivalSpeed="4.51" duration="200.00" routeLength="1881.63" waitingTime="0.00" waitingCount="0" stopTime="0.00" timeLoss="23.86" rerouteNo="0" devices="tripinfo_veh16" vType="passenger" speedFactor="0.89" vaporized=""/>
    <tripinfo id="veh39" depart="18.00" departLane="984521611#0_0" departPos="4.38" departSpeed="0.00" departDelay="0.06" arrival="209.00" arrivalLane="1205517951_0" arrivalPos="80.56" arrivalSpeed="4.77" duration="191.00" routeLength="2235.75" waitingTime="1.00" waitingCount="1" stopTime="0.00" timeLoss="24.93" rerouteNo="0" devices="tripinfo_veh39" vType="passenger" speedFactor="1.06" vaporized=""/>
    <tripinfo id="veh72" depart="34.00" departLane="40304754#2_1" departPos="80.38" departSpeed="0.00" departDelay="0.88" arrival="211.00" arrivalLane="-859726677#0_1" arrivalPos="35.20" arrivalSpeed="5.57" duration="177.00" routeLength="2183.83" waitingTime="0.00" waitingCount="0" stopTime="0.00" timeLoss="18.54" rerouteNo="0" devices="tripinfo_veh72" vType="passenger" speedFactor="1.05" vaporized=""/>
    <tripinfo id="veh277" depart="128.00" departLane="43547017#5_1" departPos="21.88" departSpeed="0.00" departDelay="0.58" arrival="213.00" arrivalLane="43544197#0_1" arrivalPos="48.34" arrivalSpeed="12.67" duration="85.00" routeLength="855.23" waitingTime="0.00" waitingCount="0" stopTime="0.00" timeLoss="15.14" rerouteNo="0" devices="tripinfo_veh277" vType="passenger" speedFactor="0.93" vaporized=""/>
    <personinfo id="ped40" depart="200.00" type="DEFAULT_PEDTYPE" speedFactor="0.99" duration="14.00" waitingTime="0.00" timeLoss="2.15" traveltime="14.00">
        <walk depart="200.00" departPos="0.00" arrival="214.00" arrivalPos="16.26" duration="14.00" routeLength="16.26" timeLoss="2.15" maxSpeed="1.37"/>
    </personinfo>
    <tripinfo id="veh60" depart="28.00" departLane="-43544179#2_1" departPos="100.73" departSpeed="0.00" departDelay="0.40" arrival="215.00" arrivalLane="-48797770_1" arrivalPos="20.27" arrivalSpeed="12.35" duration="187.00" routeLength="1998.48" waitingTime="11.00" waitingCount="1" stopTime="0.00" timeLoss="54.90" rerouteNo="0" devices="tripinfo_veh60" vType="passenger" speedFactor="1.12" vaporized=""/>