<?xml version="1.0" encoding="UTF-8"?>

<!-- generated on 2025-06-12 11:15:33 by Eclipse SUMO sumo Version 1.22.0
<sumoConfiguration xmlns:xsi="http://www.w3.org/2001/XMLSchema-instance" xsi:noNamespaceSchemaLocation="http://sumo.dlr.de/xsd/sumoConfiguration.xsd">

    <input>
        <net-file value="E:/licenta/oras-mediu/2025-06-05-11-45-23/osm.net.xml"/>
        <route-files value="E:/licenta/oras-mediu/2025-06-05-11-45-23/full.rou.xml,E:/licenta/oras-mediu/2025-06-05-11-45-23/ ped.rou.xml,E:/licenta/oras-mediu/2025-06-05-11-45-23/ truck.rou.xml"/>
        <additional-files value="E:/licenta/oras-mediu/2025-06-05-11-45-23/osm.poly.xml,E:/licenta/oras-mediu/2025-06-05-11-45-23/ vtypes.xml"/>
    </input>

    <output>
        <summary-output value="E:/licenta/oras-mediu/2025-06-05-11-45-23/summary.xml"/>
        <tripinfo-output value="E:/licenta/oras-mediu/2025-06-05-11-45-23/tripinfo.xml"/>
    </output>

    <processing>
        <ignore-route-errors value="true"/>
        <tls.actuated.jam-threshold value="30"/>
    </processing>

    <routing>
        <device.rerouting.adaptation-steps value="18"/>
        <device.rerouting.adaptation-interval value="10"/>
    </routing>

    <report>
        <verbose value="true"/>
        <duration-log.statistics value="true"/>
        <no-step-log value="true"/>
    </report>

    <traci_server>
        <remote-port value="62320"/>
    </traci_server>

    <gui_only>
        <gui-settings-file value="E:/licenta/oras-mediu/2025-06-05-11-45-23/osm.view.xml"/>
    </gui_only>

</sumoConfiguration>
-->

<tripinfos xmlns:xsi="http://www.w3.org/2001/XMLSchema-instance" xsi:noNamespaceSchemaLocation="http://sumo.dlr.de/xsd/tripinfo_file.xsd">
    <tripinfo id="veh4" depart="2.00" departLane="-48736631_1" departPos="55.21" departSpeed="0.00" departDelay="0.16" arrival="40.00" arrivalLane="984513295_0" arrivalPos="47.07" arrivalSpeed="4.41" duration="38.00" routeLength="288.05" waitingTime="0.00" waitingCount="0" stopTime="0.00" timeLoss="8.98" rerouteNo="0" devices="tripinfo_veh4" vType="passenger" speedFactor="1.02" vaporized=""/>
    <tripinfo id="veh71" depart="33.00" departLane="48778461#1_1" departPos="23.31" departSpeed="0.00" departDelay="0.34" arrival="64.00" arrivalLane="-48778454#1_1" arrivalPos="94.52" arrivalSpeed="11.81" duration="31.00" routeLength="265.48" waitingTime="0.00" waitingCount="0" stopTime="0.00" timeLoss="7.38" rerouteNo="0" devices="tripinfo_veh71" vType="passenger" speedFactor="0.91" vaporized=""/>
    <tripinfo id="veh83" depart="39.00" departLane="48778508#1_1" departPos="57.41" departSpeed="0.00" departDelay="0.82" arrival="69.00" arrivalLane="-33909936#3_1" arrivalPos="25.37" arrivalSpeed="14.11" duration="30.00" routeLength="271.15" waitingTime="0.00" waitingCount="0" stopTime="0.00" timeLoss="9.20" rerouteNo="0" devices="tripinfo_veh83" vType="passenger" speedFactor="1.25" vaporized=""/>
    <tripinfo id="veh96" depart="45.00" departLane="-859727041_0" departPos="194.94" departSpeed="0.00" departDelay="0.84" arrival="71.00" arrivalLane="383582499#2_1" arrivalPos="48.51" arrivalSpeed="13.77" duration="26.00" routeLength="202.91" waitingTime="0.00" waitingCount="0" stopTime="0.00" timeLoss="4.66" rerouteNo="0" devices="tripinfo_veh96" vType="passenger" speedFactor="1.03" vaporized=""/>
    <tripinfo id="veh38" depart="18.00" departLane="258551297#0_0" departPos="3.84" departSpeed="0.00" departDelay="0.52" arrival="84.00" arrivalLane="48736666#2_1" arrivalPos="56.15" arrivalSpeed="15.73" duration="66.00" routeLength="610.32" waitingTime="0.00" waitingCount="0" stopTime="0.00" timeLoss="12.11" rerouteNo="0" devices="tripinfo_veh38" vType="passenger" speedFactor="1.17" vaporized=""/>
    <tripinfo id="veh31" depart="15.00" departLane="-222605087#2_1" departPos="2.72" departSpeed="0.00" departDelay="0.74" arrival="91.00" arrivalLane="1250915722#4_1" arrivalPos="56.95" arrivalSpeed="4.73" duration="76.00" routeLength="406.49" waitingTime="0.00" waitingCount="0" stopTime="0.00" timeLoss="11.23" rerouteNo="0" devices="tripinfo_veh31" vType="passenger" speedFactor="1.07" vaporized=""/>
    <tripinfo id="veh60" depart="28.00" departLane="43546460#3_1" departPos="18.40" departSpeed="0.00" departDelay="0.40" arrival="104.00" arrivalLane="-383582511#0_0" arrivalPos="95.20" arrivalSpeed="2.36" duration="76.00" routeLength="383.42" waitingTime="0.00" waitingCount="0" stopTime="0.00" timeLoss="16.05" rerouteNo="0" devices="tripinfo_veh60" vType="passenger" speedFactor="1.02" vaporized=""/>
    <tripinfo id="veh139" depart="64.00" departLane="40314883_1" departPos="84.16" departSpeed="0.00" departDelay="0.06" arrival="109.00" arrivalLane="40299264#2_1" arrivalPos="39.63" arrivalSpeed="13.49" duration="45.00" routeLength="414.64" waitingTime="0.00" waitingCount="0" stopTime="0.00" timeLoss="10.76" rerouteNo="0" devices="tripinfo_veh139" vType="motorcycle" speedFactor="0.98" vaporized=""/>
    <tripinfo id="veh1" depart="1.00" departLane="222609004#0_1" departPos="1.34" departSpeed="0.00" departDelay="0.54" arrival="112.00" arrivalLane="1136283379#1_1" arrivalPos="30.99" arrivalSpeed="8.31" duration="111.00" routeLength="867.26" waitingTime="26.00" waitingCount="2" stopTime="0.00" timeLoss="47.53" rerouteNo="0" devices="tripinfo_veh1" vType="passenger" speedFactor="1.08" vaporized=""/>
    <tripinfo id="veh116" depart="54.00" departLane="401741889#0_1" departPos="305.34" departSpeed="0.00" departDelay="0.64" arrival="114.00" arrivalLane="647610982#0_1" arrivalPos="197.95" arrivalSpeed="12.38" duration="60.00" routeLength="694.86" waitingTime="0.00" waitingCount="0" stopTime="0.00" timeLoss="10.29" rerouteNo="0" devices="tripinfo_veh116" vType="motorcycle" speedFactor="1.04" vaporized=""/>
    <tripinfo id="veh69" depart="32.00" departLane="-1205541343#1_1" departPos="7.41" departSpeed="0.00" departDelay="0.26" arrival="123.00" arrivalLane="-43546688#2_1" arrivalPos="41.74" arrivalSpeed="14.46" duration="91.00" routeLength="1036.03" waitingTime="0.00" waitingCount="0" stopTime="0.00" timeLoss="11.56" rerouteNo="0" devices="tripinfo_veh69" vType="passenger" speedFactor="1.06" vaporized=""/>
    <tripinfo id="veh120" depart="56.00" departLane="43547017#0_1" departPos="15.87" departSpeed="0.00" departDelay="0.80" arrival="127.00" arrivalLane="-43544001#6_1" arrivalPos="38.33" arrivalSpeed="12.08" duration="71.00" routeLength="747.83" waitingTime="0.00" waitingCount="0" stopTime="0.00" timeLoss="10.19" rerouteNo="0" devices="tripinfo_veh120" vType="passenger" speedFactor="0.92" vaporized=""/>
    <tripinfo id="veh79" depart="37.00" departLane="-671642290_1" departPos="39.19" departSpeed="0.00" departDelay="0.66" arrival="133.00" arrivalLane="43544624#3_1" arrivalPos="179.18" arrivalSpeed="14.32" duration="96.00" routeLength="1082.99" waitingTime="0.00" waitingCount="0" stopTime="0.00" timeLoss="19.79" rerouteNo="0" devices="tripinfo_veh79" vType="passenger" speedFactor="1.08" vaporized=""/>
    <tripinfo id="veh17" depart="8.00" departLane="-48736647#1_1" departPos="35.85" departSpeed="0.00" departDelay="0.18" arrival="137.00" arrivalLane="-E10_1" arrivalPos="114.86" arrivalSpeed="13.43" duration="129.00" routeLength="1045.94" waitingTime="32.00" waitingCount="1" stopTime="0.00" timeLoss="51.85" rerouteNo="0" devices="tripinfo_veh17" vType="passenger" speedFactor="1.01" vaporized=""/>
    <tripinfo id="veh34" depart="16.00" departLane="-48778510#1_1" departPos="6.06" departSpeed="0.00" departDelay="0.36" arrival="138.00" arrivalLane="43547017#1_1" arrivalPos="26.92" arrivalSpeed="11.89" duration="122.00" routeLength="1221.27" waitingTime="8.00" waitingCount="2" stopTime="0.00" timeLoss="37.06" rerouteNo="0" devices="tripinfo_veh34" vType="passenger" speedFactor="1.09" vaporized=""/>
    <tripinfo id="veh126" depart="58.00" departLane="43573573#0_1" departPos="13.23" departSpeed="0.00" departDelay="0.04" arrival="144.00" arrivalLane="43546105#0_1" arrivalPos="198.99" arrivalSpeed="10.59" duration="86.00" routeLength="770.98" waitingTime="0.00" waitingCount="0" stopTime="0.00" timeLoss="12.74" rerouteNo="0" devices="tripinfo_veh126" vType="passenger" speedFactor="0.80" vaporized=""/>
    <tripinfo id="veh37" depart="18.00" departLane="848060815_1" departPos="99.94" departSpeed="0.00" departDelay="0.98" arrival="148.00" arrivalLane="-422283114_0" arrivalPos="185.51" arrivalSpeed="5.30" duration="130.00" routeLength="1212.51" waitingTime="2.00" waitingCount="1" stopTime="0.00" timeLoss="25.19" rerouteNo="0" devices="tripinfo_veh37" vType="passenger" speedFactor="1.06" vaporized=""/>
    <tripinfo id="veh107" depart="50.00" departLane="-43546064#1_1" departPos="77.27" departSpeed="0.00" departDelay="0.78" arrival="148.00" arrivalLane="1136289991_1" arrivalPos="31.14" arrivalSpeed="7.46" duration="98.00" routeLength="1070.73" waitingTime="0.00" waitingCount="0" stopTime="0.00" timeLoss="14.62" rerouteNo="0" devices="tripinfo_veh107" vType="emergency" speedFactor="1.00" vaporized=""/>
    <tripinfo id="veh50" depart="23.00" departLane="-1136289989_1" departPos="11.81" departSpeed="0.00" departDelay="0.00" arrival="149.00" arrivalLane="-40265775#1_1" arrivalPos="75.00" arrivalSpeed="11.78" duration="126.00" routeLength="1291.47" waitingTime="0.00" waitingCount="0" stopTime="0.00" timeLoss="17.88" rerouteNo="0" devices="tripinfo_veh50" vType="passenger" speedFactor="0.91" vaporized=""/>
    <tripinfo id="veh72" depart="35.00" departLane="48797766#0_1" departPos="9.13" departSpeed="0.00" departDelay="1.88" arrival="155.00" arrivalLane="48736666#1_1" arrivalPos="12.12" arrivalSpeed="10.72" duration="120.00" routeLength="1043.93" waitingTime="23.00" waitingCount="2" stopTime="0.00" timeLoss="50.77" rerouteNo="0" devices="tripinfo_veh72" vType="passenger" speedFactor="1.14" vaporized=""/>
    <tripinfo id="veh42" depart="20.00" departLane="-40299739#0_1" departPos="90.89" departSpeed="0.00" departDelay="0.68" arrival="156.00" arrivalLane="-383582854#1_0" arrivalPos="46.80" arrivalSpeed="3.95" duration="136.00" routeLength="1222.64" waitingTime="0.00" waitingCount="0" stopTime="0.00" timeLoss="22.43" rerouteNo="0" devices="tripinfo_veh42" vType="motorcycle" speedFactor="0.90" vaporized=""/>
    <tripinfo id="veh147" depart="68.00" departLane="-647226815#0_1" departPos="32.02" departSpeed="0.00" departDelay="0.38" arrival="159.00" arrivalLane="1136289987_1" arrivalPos="68.55" arrivalSpeed="9.75" duration="91.00" routeLength="954.16" waitingTime="3.00" waitingCount="1" stopTime="0.00" timeLoss="25.56" rerouteNo="0" devices="tripinfo_veh147" vType="passenger" speedFactor="1.18" vaporized=""/>
    <tripinfo id="veh24" depart="12.00" departLane="-48778453_1" departPos="4.90" departSpeed="0.00" departDelay="0.96" arrival="166.00" arrivalLane="-48778500#1_1" arrivalPos="81.60" arrivalSpeed="13.24" duration="154.00" routeLength="1682.15" waitingTime="0.00" waitingCount="0" stopTime="0.00" timeLoss="25.85" rerouteNo="0" devices="tripinfo_veh24" vType="passenger" speedFactor="0.99" vaporized=""/>
    <tripinfo id="veh68" depart="32.00" departLane="48778508#1_1" departPos="22.23" departSpeed="0.00" departDelay="0.72" arrival="170.00" arrivalLane="258551321_1" arrivalPos="124.63" arrivalSpeed="14.32" duration="138.00" routeLength="1499.06" waitingTime="2.00" waitingCount="1" stopTime="0.00" timeLoss="31.63" rerouteNo="0" devices="tripinfo_veh68" vType="passenger" speedFactor="1.05" vaporized=""/>
    <tripinfo id="veh44" depart="21.00" departLane="-40334244#2_1" departPos="2.74" departSpeed="0.00" departDelay="0.76" arrival="172.00" arrivalLane="-48736624#0_1" arrivalPos="112.70" arrivalSpeed="13.67" duration="151.00" routeLength="1474.98" waitingTime="14.00" waitingCount="2" stopTime="0.00" timeLoss="43.09" rerouteNo="0" devices="tripinfo_veh44" vType="passenger" speedFactor="1.02" vaporized=""/>
    <tripinfo id="veh151" depart="70.00" departLane="-48778500#0_1" departPos="10.58" departSpeed="0.00" departDelay="0.54" arrival="175.00" arrivalLane="984508805_0" arrivalPos="34.81" arrivalSpeed="4.87" duration="105.00" routeLength="753.47" waitingTime="12.00" waitingCount="2" stopTime="0.00" timeLoss="36.30" rerouteNo="0" devices="tripinfo_veh151" vType="passenger" speedFactor="0.90" vaporized=""/>
    <tripinfo id="veh45" depart="21.00" departLane="43548506_1" departPos="46.55" departSpeed="0.00" departDelay="0.30" arrival="177.00" arrivalLane="-48736641_1" arrivalPos="16.88" arrivalSpeed="9.76" duration="156.00" routeLength="1650.94" waitingTime="4.00" waitingCount="1" stopTime="0.00" timeLoss="32.15" rerouteNo="0" devices="tripinfo_veh45" vType="passenger" speedFactor="1.00" vaporized=""/>
    <tripinfo id="veh206" depart="95.00" departLane="-647621858_0" departPos="21.16" departSpeed="0.00" departDelay="0.24" arrival="180.00" arrivalLane="304695350#2_1" arrivalPos="9.95" arrivalSpeed="8.57" duration="85.00" routeLength="801.17" waitingTime="0.00" waitingCount="0" stopTime="0.00" timeLoss="15.39" rerouteNo="0" devices="tripinfo_veh206" vType="passenger" speedFactor="1.12" vaporized=""/>
    <tripinfo id="veh98" depart="46.00" departLane="996984134_0" departPos="6.65" departSpeed="0.00" departDelay="0.92" arrival="186.00" arrivalLane="-43544197#8_1" arrivalPos="132.21" arrivalSpeed="14.92" duration="140.00" routeLength="1549.15" waitingTime="5.00" waitingCount="1" stopTime="0.00" timeLoss="29.37" rerouteNo="0" devices="tripinfo_veh98" vType="passenger" speedFactor="1.12" vaporized=""/>
    <tripinfo id="veh118" depart="55.00" departLane="67712683_1" departPos="43.91" departSpeed="0.00" departDelay="0.72" arrival="188.00" arrivalLane="-48778526_1" arrivalPos="97.35" arrivalSpeed="12.78" duration="133.00" routeLength="1426.55" waitingTime="0.00" waitingCount="0" stopTime="0.00" timeLoss="19.05" rerouteNo="0" devices="tripinfo_veh118" vType="passenger" speedFactor="0.94" vaporized=""/>
    <tripinfo id="veh180" depart="83.00" departLane="-48778449#2_1" departPos="39.73" departSpeed="0.00" departDelay="0.20" arrival="189.00" arrivalLane="984508805_0" arrivalPos="34.81" arrivalSpeed="5.87" duration="106.00" routeLength="1134.16" waitingTime="0.00" waitingCount="0" stopTime="0.00" timeLoss="22.87" rerouteNo="0" devices="tripinfo_veh180" vType="passenger" speedFactor="1.09" vaporized=""/>
    <tripinfo id="veh13" depart="6.00" departLane="-647383048_1" departPos="72.83" departSpeed="0.00" departDelay="0.02" arrival="191.00" arrivalLane="43547256#2_1" arrivalPos="217.55" arrivalSpeed="13.82" duration="185.00" routeLength="2073.50" waitingTime="0.00" waitingCount="0" stopTime="0.00" timeLoss="30.69" rerouteNo="0" devices="tripinfo_veh13" vType="emergency" speedFactor="1.00" vaporized=""/>
    <tripinfo id="veh18" depart="9.00" departLane="40334245#2_1" departPos="0.12" departSpeed="0.00" departDelay="0.72" arrival="191.00" arrivalLane="-1136117610_0" arrivalPos="80.17" arrivalSpeed="1.60" duration="182.00" routeLength="1552.53" waitingTime="0.00" waitingCount="0" stopTime="0.00" timeLoss="23.61" rerouteNo="0" devices="tripinfo_veh18" vType="passenger" speedFactor="0.87" vaporized=""/>
    <tripinfo id="veh171" depart="79.00" departLane="1054663937_1" departPos="41.01" departSpeed="0.00" departDelay="0.34" arrival="192.00" arrivalLane="-48736664#0_1" arrivalPos="73.46" arrivalSpeed="12.34" duration="113.00" routeLength="1326.78" waitingTime="0.00" waitingCount="0" stopTime="0.00" timeLoss="21.43" rerouteNo="0" devices="tripinfo_veh171" vType="motorcycle" speedFactor="1.10" vaporized=""/>
    <tripinfo id="veh282" depart="130.00" departLane="48778487#1_1" departPos="158.42" departSpeed="0.00" departDelay="0.28" arrival="192.00" arrivalLane="1136283361_0" arrivalPos="47.88" arrivalSpeed="4.77" duration="62.00" routeLength="507.78" waitingTime="0.00" waitingCount="0" stopTime="0.00" timeLoss="16.09" rerouteNo="0" devices="tripinfo_veh282" vType="motorcycle" speedFactor="1.03" vaporized=""/>
    <tripinfo id="veh195" depart="90.00" departLane="48778505#2_1" departPos="38.92" departSpeed="0.00" departDelay="0.30" arrival="193.00" arrivalLane="-48778499#0_1" arrivalPos="44.27" arrivalSpeed="14.18" duration="103.00" routeLength="1038.24" waitingTime="0.00" waitingCount="0" stopTime="0.00" timeLoss="24.15" rerouteNo="0" devices="tripinfo_veh195" vType="passenger" speedFactor="1.02" vaporized=""/>
    <tripinfo id="veh7" depart="4.00" departLane="43546343#1_1" departPos="29.81" departSpeed="0.00" departDelay="0.78" arrival="194.00" arrivalLane="-43547017#3_1" arrivalPos="47.98" arrivalSpeed="15.57" duration="190.00" routeLength="2569.75" waitingTime="0.00" waitingCount="0" stopTime="0.00" timeLoss="22.81" rerouteNo="0" devices="tripinfo_veh7" vType="passenger" speedFactor="1.12" vaporized=""/>
    <tripinfo id="veh101" depart="47.00" departLane="-43547296#0_1" departPos="43.84" departSpeed="0.00" departDelay="0.54" arrival="195.00" arrivalLane="40265780#1_1" arrivalPos="48.14" arrivalSpeed="10.78" duration="148.00" routeLength="1341.57" waitingTime="0.00" waitingCount="0" stopTime="0.00" timeLoss="27.27" rerouteNo="0" devices="tripinfo_veh101" vType="motorcycle" speedFactor="0.84" vaporized=""/>
    <tripinfo id="veh246" depart="114.00" departLane="48788485#8_2" departPos="5.40" departSpeed="0.00" departDelay="0.84" arrival="196.00" arrivalLane="48778508#1_1" arrivalPos="98.38" arrivalSpeed="12.84" duration="82.00" routeLength="941.00" waitingTime="0.00" waitingCount="0" stopTime="0.00" timeLoss="11.20" rerouteNo="0" devices="tripinfo_veh246" vType="motorcycle" speedFactor="0.99" vaporized=""/>
    <tripinfo id="veh22" depart="11.00" departLane="-43544197#6_1" departPos="5.12" departSpeed="0.00" departDelay="0.88" arrival="198.00" arrivalLane="859728207_0" arrivalPos="18.62" arrivalSpeed="6.23" duration="187.00" routeLength="2279.73" waitingTime="0.00" waitingCount="0" stopTime="0.00" timeLoss="27.38" rerouteNo="0" devices="tripinfo_veh22" vType="passenger" speedFactor="1.15" vaporized=""/>
    <tripinfo id="veh75" depart="35.00" departLane="48778487#1_2" departPos="273.75" departSpeed="0.00" departDelay="0.50" arrival="198.00" arrivalLane="-40314883_1" arrivalPos="74.78" arrivalSpeed="13.79" duration="163.00" routeLength="1688.37" waitingTime="21.00" waitingCount="1" stopTime="0.00" timeLoss="39.67" rerouteNo="0" devices="tripinfo_veh75" vType="emergency" speedFactor="1.00" vaporized=""/>
    <personinfo id="ped16" depart="80.00" type="DEFAULT_PEDTYPE" speedFactor="1.06" duration="119.00" waitingTime="0.00" timeLoss="12.05" traveltime="119.00">
        <walk depart="80.00" departPos="0.00" arrival="199.00" arrivalPos="47.26" duration="119.00" routeLength="157.03" timeLoss="12.05" maxSpeed="1.47"/>
    </personinfo>
    <tripinfo id="veh80" depart="37.00" departLane="353939570#3_1" departPos="83.50" departSpeed="0.00" departDelay="0.20" arrival="202.00" arrivalLane="48736666#1_1" arrivalPos="12.12" arrivalSpeed="10.16" duration="165.00" routeLength="1664.18" waitingTime="14.00" waitingCount="1" stopTime="0.00" timeLoss="38.89" rerouteNo="0" devices="tripinfo_veh80" vType="passenger" speedFactor="1.03" vaporized=""/>
    <tripinfo id="veh143" depart="66.00" departLane="43544179#10_1" departPos="4.86" departSpeed="0.00" departDelay="0.22" arrival="205.00" arrivalLane="143207979#0_1" arrivalPos="24.80" arrivalSpeed="11.14" duration="139.00" routeLength="1245.66" waitingTime="15.00" waitingCount="1" stopTime="0.00" timeLoss="37.12" rerouteNo="0" devices="tripinfo_veh143" vType="passenger" speedFactor="0.93" vaporized=""/>
    <tripinfo id="veh186" depart="86.00" departLane="-48778517#1_1" departPos="4.72" departSpeed="0.00" departDelay="0.44" arrival="205.00" arrivalLane="647998060#1_1" arrivalPos="57.23" arrivalSpeed="14.35" duration="119.00" routeLength="1241.98" waitingTime="0.00" waitingCount="0" stopTime="0.00" timeLoss="32.08" rerouteNo="0" devices="tripinfo_veh186" vType="motorcycle" speedFactor="1.14" vaporized=""/>
    <tripinfo id="veh82" depart="38.00" departLane="-671642291_1" departPos="1.94" departSpeed="0.00" departDelay="0.28" arrival="207.00" arrivalLane="-383582514_1" arrivalPos="205.28" arrivalSpeed="8.03" duration="169.00" routeLength="1879.02" waitingTime="0.00" waitingCount="0" stopTime="0.00" timeLoss="24.48" rerouteNo="0" devices="tripinfo_veh82" vType="delivery" speedFactor="1.03" vaporized=""/>
    <personinfo id="ped7" depart="35.00" type="DEFAULT_PEDTYPE" speedFactor="1.11" duration="173.00" waitingTime="0.00" timeLoss="19.15" traveltime="173.00">
        <walk depart="35.00" departPos="0.00" arrival="208.00" arrivalPos="31.68" duration="173.00" routeLength="237.12" timeLoss="19.15" maxSpeed="1.54"/>
    </personinfo>
    <tripinfo id="veh170" depart="79.00" departLane="67712683_1" departPos="60.80" departSpeed="0.00" departDelay="0.80" arrival="208.00" arrivalLane="-43546053#2_1" arrivalPos="188.18" arrivalSpeed="15.39" duration="129.00" routeLength="1388.74" waitingTime="14.00" waitingCount="1" stopTime="0.00" timeLoss="41.59" rerouteNo="0" devices="tripinfo_veh170" vType="passenger" speedFactor="1.17" vaporized=""/>
    <personinfo id="ped19" depart="95.00" type="DEFAULT_PEDTYPE" speedFactor="1.02" duration="114.00" waitingTime="0.00" timeLoss="11.08" traveltime="114.00">
        <walk depart="95.00" departPos="0.00" arrival="209.00" arrivalPos="136.85" duration="114.00" routeLength="146.04" timeLoss="11.08" maxSpeed="1.42"/>
    </personinfo>
    <tripinfo id="veh91" depart="42.00" departLane="-647998063#1_1" departPos="15.66" departSpeed="0.00" departDelay="0.14" arrival="210.00" arrivalLane="1015948619_0" arrivalPos="20.77" arrivalSpeed="3.66" duration="168.00" routeLength="946.04" waitingTime="31.00" waitingCount="1" stopTime="0.00" timeLoss="88.86" rerouteNo="0" devices="tripinfo_veh91" vType="motorcycle" speedFactor="0.98" vaporized=""/>
    <tripinfo id="veh300" depart="138.00" departLane="-48778494#1_1" departPos="6.60" departSpeed="0.00" departDelay="0.00" arrival="212.00" arrivalLane="48778494#1_1" arrivalPos="15.92" arrivalSpeed="9.74" duration="74.00" routeLength="669.99" waitingTime="0.00" waitingCount="0" stopTime="0.00" timeLoss="18.08" rerouteNo="0" devices="tripinfo_veh300" vType="passenger" speedFactor="0.91" vaporized=""/>
    <tripinfo id="veh340" depart="157.00" departLane="-1136283361_0" departPos="45.48" departSpeed="0.00" departDelay="0.60" arrival="214.00" arrivalLane="-578560104#4_1" arrivalPos="13.09" arrivalSpeed="13.53" duration="57.00" routeLength="513.72" waitingTime="4.00" waitingCount="1" stopTime="0.00" timeLoss="15.68" rerouteNo="0" devices="tripinfo_veh340" vType="passenger" speedFactor="1.03" vaporized=""/>
    <tripinfo id="veh59" depart="28.00" departLane="-859732801#1_1" departPos="11.78" departSpeed="0.00" departDelay="0.86" arrival="215.00" arrivalLane="-859728208#1_0" arrivalPos="0.20" arrivalSpeed="3.74" duration="187.00" routeLength="1675.73" waitingTime="11.00" waitingCount="1" stopTime="0.00" timeLoss="34.93" rerouteNo="0" devices="tripinfo_veh59" vType="passenger" speedFactor="0.90" vaporized=""/>
    <tripinfo id="veh108" depart="50.00" departLane="48778464#0_1" departPos="19.49" departSpeed="0.00" departDelay="0.32" arrival="215.00" arrivalLane="-48736632#1_1" arrivalPos="49.82" arrivalSpeed="13.41" duration="165.00" routeLength="1380.25" waitingTime="36.00" waitingCount="1" stopTime="0.00" timeLoss="61.50" rerouteNo="0" devices="tripinfo_veh108" vType="passenger" speedFactor="1.02" vaporized=""/>
    <tripinfo id="veh154" depart="71.00" departLane="-995052183_0" departPos="36.23" departSpeed="0.00" departDelay="0.16" arrival="215.00" arrivalLane="1276522491_0" arrivalPos="98.51" arrivalSpeed="5.33" duration="144.00" routeLength="1403.76" waitingTime="0.00" waitingCount="0" stopTime="0.00" timeLoss="16.85" rerouteNo="0" devices="tripinfo_veh154" vType="passenger" speedFactor="1.15" vaporized=""/>
    <tripinfo id="veh185" depart="86.00" departLane="43544001#1_1" departPos="21.79" departSpeed="0.00" departDelay="0.90" arrival="215.00" arrivalLane="-383582512#0_0" arrivalPos="35.67" arrivalSpeed="5.38" duration="129.00" routeLength="906.35" waitingTime="31.00" waitingCount="1" stopTime="0.00" timeLoss="59.85" rerouteNo="0" devices="tripinfo_veh185" vType="delivery" speedFactor="1.08" vaporized=""/>
    <tripinfo id="veh39" depart="18.00" departLane="-43546648#1_1" departPos="30.54" departSpeed="0.00" departDelay="0.06" arrival="216.00" arrivalLane="48778508#5_1" arrivalPos="31.95" arrivalSpeed="13.88" duration="198.00" routeLength="1701.90" waitingTime="42.00" waitingCount="2" stopTime="0.00" timeLoss="77.04" rerouteNo="0" devices="tripinfo_veh39" vType="passenger" speedFactor="1.05" vaporized=""/>
    <tripinfo id="veh251" depart="119.00" departLane="43544001#10_1" departPos="11.07" departSpeed="0.00" departDelay="3.54" arrival="217.00" arrivalLane="-43546053#0_1" arrivalPos="315.83" arrivalSpeed="14.08" duration="98.00" routeLength="999.36" waitingTime="3.00" waitingCount="1" stopTime="0.00" timeLoss="29.64" rerouteNo="0" devices="tripinfo_veh251" vType="passenger" speedFactor="1.09" vaporized=""/>
    <tripinfo id="veh132" depart="61.00" departLane="250295383#4_1" departPos="12.09" departSpeed="0.00" departDelay="0.28" arrival="219.00" arrivalLane="-48736632#0_1" arrivalPos="98.98" arrivalSpeed="11.95" duration="158.00" routeLength="1613.93" waitingTime="0.00" waitingCount="0" stopTime="0.00" timeLoss="19.40" rerouteNo="0" devices="tripinfo_veh132" vType="passenger" speedFactor="0.87" vaporized=""/>
    <tripinfo id="veh184" depart="87.00" departLane="353939586#0_1" departPos="11.55" departSpeed="0.00" departDelay="2.36" arrival="221.00" arrivalLane="-945794111_1" arrivalPos="62.47" arrivalSpeed="7.58" duration="134.00" routeLength="1311.37" waitingTime="7.00" waitingCount="1" stopTime="0.00" timeLoss="30.49" rerouteNo="0" devices="tripinfo_veh184" vType="delivery" speedFactor="0.99" vaporized=""/>
    <tripinfo id="veh92" depart="43.00" departLane="383582513_0" departPos="45.85" departSpeed="0.00" departDelay="0.68" arrival="224.00" arrivalLane="-251916699#0_1" arrivalPos="41.20" arrivalSpeed="11.19" duration="181.00" routeLength="1931.13" waitingTime="0.00" waitingCount="0" stopTime="0.00" timeLoss="26.87" rerouteNo="0" devices="tripinfo_veh92" vType="motorcycle" speedFactor="0.94" vaporized=""/>
    <personinfo id="ped32" depart="160.00" type="DEFAULT_PEDTYPE" speedFactor="0.90" duration="69.00" waitingTime="0.00" timeLoss="7.27" traveltime="69.00">
        <walk depart="160.00" departPos="0.00" arrival="229.00" arrivalPos="12.19" duration="69.00" routeLength="77.26" timeLoss="7.27" maxSpeed="1.25"/>
    </personinfo>
    <tripinfo id="veh28" depart="13.00" departLane="-40330557#3_1" departPos="18.75" departSpeed="0.00" departDelay="0.12" arrival="229.00" arrivalLane="-48778475#0_1" arrivalPos="61.83" arrivalSpeed="15.17" duration="216.00" routeLength="1551.30" waitingTime="25.00" waitingCount="3" stopTime="0.00" timeLoss="110.84" rerouteNo="0" devices="tripinfo_veh28" vType="passenger" speedFactor="1.10" vaporized=""/>
    <tripinfo id="veh12" depart="6.00" departLane="40345930_1" departPos="7.09" departSpeed="0.00" departDelay="0.48" arrival="231.00" arrivalLane="48736612#4_1" arrivalPos="2.25" arrivalSpeed="13.05" duration="225.00" routeLength="1998.01" waitingTime="42.00" waitingCount="2" stopTime="0.00" timeLoss="73.30" rerouteNo="0" devices="tripinfo_veh12" vType="delivery" speedFactor="0.97" vaporized=""/>
    <tripinfo id="veh321" depart="148.00" departLane="174818022#2_0" departPos="50.66" departSpeed="0.00" departDelay="0.34" arrival="231.00" arrivalLane="-40314853#2_1" arrivalPos="35.46" arrivalSpeed="14.84" duration="83.00" routeLength="649.15" waitingTime="12.00" waitingCount="2" stopTime="0.00" timeLoss="32.59" rerouteNo="0" devices="tripinfo_veh321" vType="passenger" speedFactor="1.12" vaporized=""/>
    <tripinfo id="veh130" depart="60.00" departLane="-40330571#0_1" departPos="7.70" departSpeed="0.00" departDelay="0.20" arrival="233.00" arrivalLane="40236232#0_1" arrivalPos="39.67" arrivalSpeed="14.53" duration="173.00" routeLength="1400.24" waitingTime="19.00" waitingCount="4" stopTime="0.00" timeLoss="78.49" rerouteNo="0" devices="tripinfo_veh130" vType="passenger" speedFactor="1.13" vaporized=""/>
    <tripinfo id="veh20" depart="10.00" departLane="33913538#0_1" departPos="146.21" departSpeed="0.00" departDelay="0.80" arrival="235.00" arrivalLane="995052182_0" arrivalPos="116.39" arrivalSpeed="5.20" duration="225.00" routeLength="2681.70" waitingTime="0.00" waitingCount="0" stopTime="0.00" timeLoss="21.01" rerouteNo="0" devices="tripinfo_veh20" vType="passenger" speedFactor="1.13" vaporized=""/>
    <tripinfo id="veh200" depart="92.00" departLane="401741889#0_1" departPos="325.28" departSpeed="0.00" departDelay="0.00" arrival="236.00" arrivalLane="671642315_1" arrivalPos="17.80" arrivalSpeed="10.58" duration="144.00" routeLength="1665.66" waitingTime="1.00" waitingCount="1" stopTime="0.00" timeLoss="46.15" rerouteNo="0" devices="tripinfo_veh200" vType="passenger" speedFactor="1.26" vaporized=""/>
    <tripinfo id="veh330" depart="152.00" departLane="-40304754#3_1" departPos="42.91" departSpeed="0.00" departDelay="0.20" arrival="236.00" arrivalLane="-40306162#1_1" arrivalPos="43.20" arrivalSpeed="11.64" duration="84.00" routeLength="797.90" waitingTime="0.00" waitingCount="0" stopTime="0.00" timeLoss="13.18" rerouteNo="0" devices="tripinfo_veh330" vType="passenger" speedFactor="0.86" vaporized=""/>
    <tripinfo id="veh16" depart="8.00" departLane="43546064#0_1" departPos="149.47" departSpeed="0.00" departDelay="0.64" arrival="238.00" arrivalLane="859734514#1_0" arrivalPos="56.51" arrivalSpeed="3.78" duration="230.00" routeLength="2078.07" waitingTime="0.00" waitingCount="0" stopTime="0.00" timeLoss="37.09" rerouteNo="0" devices="tripinfo_veh16" vType="passenger" speedFactor="0.89" vaporized=""/>