<?xml version="1.0" encoding="UTF-8"?>

<!-- generated on 2025-06-12 11:19:23 by Eclipse SUMO sumo Version 1.22.0
<sumoConfiguration xmlns:xsi="http://www.w3.org/2001/XMLSchema-instance" xsi:noNamespaceSchemaLocation="http://sumo.dlr.de/xsd/sumoConfiguration.xsd">

    <input>
        <net-file value="E:/licenta/oras-mediu/2025-06-05-11-45-23/osm.net.xml"/>
        <route-files value="E:/licenta/oras-mediu/2025-06-05-11-45-23/full.rou.xml,E:/licenta/oras-mediu/2025-06-05-11-45-23/ ped.rou.xml,E:/licenta/oras-mediu/2025-06-05-11-45-23/ truck.rou.xml"/>
        <additional-files value="E:/licenta/oras-mediu/2025-06-05-11-45-23/osm.poly.xml,E:/licenta/oras-mediu/2025-06-05-11-45-23/ vtypes.xml"/>
    </input>

    <output>
        <summary-output value="E:/licenta/oras-mediu/2025-06-05-11-45-23/summary.xml"/>
        <tripinfo-output value="E:/licenta/oras-mediu/2025-06-05-11-45-23/tripinfo.xml"/>
    </output>

    <processing>
        <ignore-route-errors value="true"/>
        <tls.actuated.jam-threshold value="30"/>
    </processing>

    <routing>
        <device.rerouting.adaptation-steps value="18"/>
        <device.rerouting.adaptation-interval value="10"/>
    </routing>

    <report>
        <verbose value="true"/>
        <duration-log.statistics value="true"/>
        <no-step-log value="true"/>
    </report>

    <traci_server>
        <remote-port value="62418"/>
    </traci_server>

    <gui_only>
        <gui-settings-file value="E:/licenta/oras-mediu/2025-06-05-11-45-23/osm.view.xml"/>
    </gui_only>

</sumoConfiguration>
-->

<tripinfos xmlns:xsi="http://www.w3.org/2001/XMLSchema-instance" xsi:noNamespaceSchemaLocation="http://sumo.dlr.de/xsd/tripinfo_file.xsd">
    <tripinfo id="veh3" depart="2.00" departLane="945794107_1" departPos="63.37" departSpeed="0.00" departDelay="0.44" arrival="57.00" arrivalLane="-48778494#0_1" arrivalPos="50.02" arrivalSpeed="13.69" duration="55.00" routeLength="561.56" waitingTime="0.00" waitingCount="0" stopTime="0.00" timeLoss="10.65" rerouteNo="0" devices="tripinfo_veh3" vType="passenger" speedFactor="1.01" vaporized=""/>
    <tripinfo id="veh73" depart="38.00" departLane="-43544138#4_1" departPos="41.34" departSpeed="0.00" departDelay="0.04" arrival="71.00" arrivalLane="43544184#2_1" arrivalPos="44.28" arrivalSpeed="13.32" duration="33.00" routeLength="327.54" waitingTime="0.00" waitingCount="0" stopTime="0.00" timeLoss="9.02" rerouteNo="0" devices="tripinfo_veh73" vType="passenger" speedFactor="1.05" vaporized=""/>
    <tripinfo id="veh57" depart="30.00" departLane="-48736640#0_1" departPos="51.74" departSpeed="0.00" departDelay="0.36" arrival="72.00" arrivalLane="48778443#0_1" arrivalPos="2.86" arrivalSpeed="4.85" duration="42.00" routeLength="345.59" waitingTime="0.00" waitingCount="0" stopTime="0.00" timeLoss="12.42" rerouteNo="0" devices="tripinfo_veh57" vType="delivery" speedFactor="0.96" vaporized=""/>
    <tripinfo id="veh30" depart="16.00" departLane="-48797769_1" departPos="9.84" departSpeed="0.00" departDelay="0.40" arrival="84.00" arrivalLane="258551317_1" arrivalPos="85.97" arrivalSpeed="13.12" duration="68.00" routeLength="619.03" waitingTime="0.00" waitingCount="0" stopTime="0.00" timeLoss="21.24" rerouteNo="0" devices="tripinfo_veh30" vType="passenger" speedFactor="1.03" vaporized=""/>
    <tripinfo id="veh114" depart="60.00" departLane="43546057_1" departPos="114.16" departSpeed="0.00" departDelay="0.72" arrival="102.00" arrivalLane="-48778526_1" arrivalPos="97.35" arrivalSpeed="13.36" duration="42.00" routeLength="393.84" waitingTime="0.00" waitingCount="0" stopTime="0.00" timeLoss="11.19" rerouteNo="0" devices="tripinfo_veh114" vType="emergency" speedFactor="1.00" vaporized=""/>
    <tripinfo id="veh75" depart="39.00" departLane="-43544624#3_1" departPos="167.98" departSpeed="0.00" departDelay="0.00" arrival="112.00" arrivalLane="43544046_1" arrivalPos="104.15" arrivalSpeed="11.89" duration="73.00" routeLength="672.07" waitingTime="0.00" waitingCount="0" stopTime="0.00" timeLoss="12.19" rerouteNo="0" devices="tripinfo_veh75" vType="passenger" speedFactor="0.86" vaporized=""/>
    <tripinfo id="veh26" depart="14.00" departLane="647755347#0_1" departPos="50.10" departSpeed="0.00" departDelay="0.48" arrival="113.00" arrivalLane="43546343#2_1" arrivalPos="61.97" arrivalSpeed="12.47" duration="99.00" routeLength="959.10" waitingTime="0.00" waitingCount="0" stopTime="0.00" timeLoss="20.53" rerouteNo="0" devices="tripinfo_veh26" vType="motorcycle" speedFactor="1.02" vaporized=""/>
    <tripinfo id="veh33" depart="18.00" departLane="-984508804_0" departPos="2.31" departSpeed="0.00" departDelay="0.84" arrival="122.00" arrivalLane="40266621_1" arrivalPos="38.01" arrivalSpeed="7.13" duration="104.00" routeLength="976.98" waitingTime="1.00" waitingCount="1" stopTime="0.00" timeLoss="28.08" rerouteNo="0" devices="tripinfo_veh33" vType="emergency" speedFactor="1.00" vaporized=""/>
    <tripinfo id="veh53" depart="28.00" departLane="-984505045_0" departPos="38.86" departSpeed="0.00" departDelay="0.44" arrival="130.00" arrivalLane="-43573547#10_1" arrivalPos="81.82" arrivalSpeed="13.23" duration="102.00" routeLength="1057.50" waitingTime="0.00" waitingCount="0" stopTime="0.00" timeLoss="16.58" rerouteNo="0" devices="tripinfo_veh53" vType="passenger" speedFactor="0.96" vaporized=""/>
    <tripinfo id="veh102" depart="54.00" departLane="43544001#9_1" departPos="33.14" departSpeed="0.00" departDelay="0.96" arrival="130.00" arrivalLane="1232511776#1_1" arrivalPos="83.85" arrivalSpeed="13.40" duration="76.00" routeLength="892.27" waitingTime="0.00" waitingCount="0" stopTime="0.00" timeLoss="12.31" rerouteNo="0" devices="tripinfo_veh102" vType="passenger" speedFactor="1.02" vaporized=""/>
    <personinfo id="ped16" depart="80.00" type="DEFAULT_PEDTYPE" speedFactor="0.79" duration="51.00" waitingTime="0.00" timeLoss="6.00" traveltime="51.00">
        <walk depart="80.00" departPos="0.00" arrival="131.00" arrivalPos="14.97" duration="51.00" routeLength="49.45" timeLoss="6.00" maxSpeed="1.10"/>
    </personinfo>
    <tripinfo id="veh74" depart="39.00" departLane="-48778519_1" departPos="28.47" departSpeed="0.00" departDelay="0.52" arrival="131.00" arrivalLane="-48778503#0_1" arrivalPos="42.51" arrivalSpeed="14.57" duration="92.00" routeLength="959.13" waitingTime="0.00" waitingCount="0" stopTime="0.00" timeLoss="22.55" rerouteNo="0" devices="tripinfo_veh74" vType="passenger" speedFactor="1.06" vaporized=""/>
    <tripinfo id="veh173" depart="90.00" departLane="-48778454#1_1" departPos="46.24" departSpeed="0.00" departDelay="0.04" arrival="137.00" arrivalLane="304695350#0_1" arrivalPos="0.20" arrivalSpeed="5.68" duration="47.00" routeLength="267.91" waitingTime="8.00" waitingCount="1" stopTime="0.00" timeLoss="20.24" rerouteNo="0" devices="tripinfo_veh173" vType="passenger" speedFactor="0.80" vaporized=""/>
    <tripinfo id="veh2" depart="2.00" departLane="-578560104#6_1" departPos="49.74" departSpeed="0.00" departDelay="0.96" arrival="139.00" arrivalLane="-43546648#1_1" arrivalPos="105.30" arrivalSpeed="12.05" duration="137.00" routeLength="1185.32" waitingTime="0.00" waitingCount="0" stopTime="0.00" timeLoss="21.02" rerouteNo="0" devices="tripinfo_veh2" vType="passenger" speedFactor="0.89" vaporized=""/>
    <tripinfo id="veh160" depart="84.00" departLane="-48778501_1" departPos="100.77" departSpeed="0.00" departDelay="0.80" arrival="146.00" arrivalLane="48778508#1_1" arrivalPos="98.38" arrivalSpeed="11.31" duration="62.00" routeLength="509.41" waitingTime="0.00" waitingCount="0" stopTime="0.00" timeLoss="16.81" rerouteNo="0" devices="tripinfo_veh160" vType="passenger" speedFactor="0.90" vaporized=""/>
    <tripinfo id="veh165" depart="86.00" departLane="-48736646#0_1" departPos="50.17" departSpeed="0.00" departDelay="0.20" arrival="150.00" arrivalLane="-492965073#8_2" arrivalPos="91.38" arrivalSpeed="14.40" duration="64.00" routeLength="510.43" waitingTime="15.00" waitingCount="1" stopTime="0.00" timeLoss="27.48" rerouteNo="0" devices="tripinfo_veh165" vType="passenger" speedFactor="1.04" vaporized=""/>
    <tripinfo id="veh71" depart="37.00" departLane="43544202#0_1" departPos="107.92" departSpeed="0.00" departDelay="0.08" arrival="154.00" arrivalLane="-43573547#5_1" arrivalPos="56.54" arrivalSpeed="11.83" duration="117.00" routeLength="1267.37" waitingTime="0.00" waitingCount="0" stopTime="0.00" timeLoss="17.56" rerouteNo="0" devices="tripinfo_veh71" vType="motorcycle" speedFactor="0.94" vaporized=""/>
    <tripinfo id="veh11" depart="6.00" departLane="40236232#1_1" departPos="6.92" departSpeed="0.00" departDelay="0.28" arrival="155.00" arrivalLane="-48736637_1" arrivalPos="17.08" arrivalSpeed="12.74" duration="149.00" routeLength="1318.77" waitingTime="3.00" waitingCount="1" stopTime="0.00" timeLoss="41.10" rerouteNo="0" devices="tripinfo_veh11" vType="delivery" speedFactor="0.97" vaporized=""/>
    <tripinfo id="veh44" depart="23.00" departLane="383582493_1" departPos="250.61" departSpeed="0.00" departDelay="0.12" arrival="155.00" arrivalLane="352818096#0_0" arrivalPos="2.76" arrivalSpeed="5.22" duration="132.00" routeLength="1410.06" waitingTime="0.00" waitingCount="0" stopTime="0.00" timeLoss="17.50" rerouteNo="0" devices="tripinfo_veh44" vType="motorcycle" speedFactor="0.90" vaporized=""/>
    <tripinfo id="veh72" depart="38.00" departLane="-48778503#1_1" departPos="12.48" departSpeed="0.00" departDelay="0.56" arrival="159.00" arrivalLane="43546648#0_1" arrivalPos="105.45" arrivalSpeed="10.78" duration="121.00" routeLength="1249.94" waitingTime="0.00" waitingCount="0" stopTime="0.00" timeLoss="12.14" rerouteNo="0" devices="tripinfo_veh72" vType="passenger" speedFactor="0.83" vaporized=""/>
    <tripinfo id="veh152" depart="80.00" departLane="250295381_1" departPos="8.91" departSpeed="0.00" departDelay="0.96" arrival="161.00" arrivalLane="-264868325_1" arrivalPos="96.14" arrivalSpeed="11.71" duration="81.00" routeLength="778.42" waitingTime="0.00" waitingCount="0" stopTime="0.00" timeLoss="15.07" rerouteNo="0" devices="tripinfo_veh152" vType="passenger" speedFactor="0.93" vaporized=""/>
    <tripinfo id="veh204" depart="107.00" departLane="-1136283379#1_1" departPos="7.19" departSpeed="0.00" departDelay="0.92" arrival="164.00" arrivalLane="984508804_0" arrivalPos="26.89" arrivalSpeed="4.85" duration="57.00" routeLength="428.21" waitingTime="0.00" waitingCount="0" stopTime="0.00" timeLoss="13.44" rerouteNo="0" devices="tripinfo_veh204" vType="passenger" speedFactor="0.93" vaporized=""/>
    <tripinfo id="veh50" depart="26.00" departLane="859735387#0_0" departPos="61.17" departSpeed="0.00" departDelay="0.00" arrival="166.00" arrivalLane="-1136284448_1" arrivalPos="34.50" arrivalSpeed="8.51" duration="140.00" routeLength="1635.33" waitingTime="0.00" waitingCount="0" stopTime="0.00" timeLoss="21.83" rerouteNo="0" devices="tripinfo_veh50" vType="passenger" speedFactor="1.12" vaporized=""/>
    <tripinfo id="veh12" depart="7.00" departLane="304695350#1_1" departPos="172.28" departSpeed="0.00" departDelay="0.76" arrival="168.00" arrivalLane="-859728208#3_0" arrivalPos="6.50" arrivalSpeed="5.18" duration="161.00" routeLength="1511.40" waitingTime="17.00" waitingCount="1" stopTime="0.00" timeLoss="42.97" rerouteNo="0" devices="tripinfo_veh12" vType="emergency" speedFactor="1.00" vaporized=""/>
    <tripinfo id="veh62" depart="33.00" departLane="945794111_1" departPos="8.36" departSpeed="0.00" departDelay="0.76" arrival="171.00" arrivalLane="43544179#8_1" arrivalPos="43.05" arrivalSpeed="14.25" duration="138.00" routeLength="1551.69" waitingTime="0.00" waitingCount="0" stopTime="0.00" timeLoss="22.71" rerouteNo="0" devices="tripinfo_veh62" vType="passenger" speedFactor="1.03" vaporized=""/>
    <tripinfo id="veh138" depart="72.00" departLane="-1136283380_1" departPos="5.50" departSpeed="0.00" departDelay="0.24" arrival="173.00" arrivalLane="-647755347#1_1" arrivalPos="36.40" arrivalSpeed="14.32" duration="101.00" routeLength="1003.40" waitingTime="0.00" waitingCount="0" stopTime="0.00" timeLoss="29.49" rerouteNo="0" devices="tripinfo_veh138" vType="passenger" speedFactor="1.13" vaporized=""/>
    <tripinfo id="veh19" depart="10.00" departLane="48736643_1" departPos="43.80" departSpeed="0.00" departDelay="0.12" arrival="175.00" arrivalLane="-43546793_1" arrivalPos="192.09" arrivalSpeed="15.21" duration="165.00" routeLength="1627.08" waitingTime="29.00" waitingCount="2" stopTime="0.00" timeLoss="58.69" rerouteNo="0" devices="tripinfo_veh19" vType="passenger" speedFactor="1.13" vaporized=""/>
    <tripinfo id="veh59" depart="31.00" departLane="-859729931_0" departPos="40.24" departSpeed="0.00" departDelay="0.32" arrival="177.00" arrivalLane="48736641_1" arrivalPos="16.88" arrivalSpeed="11.47" duration="146.00" routeLength="1299.79" waitingTime="24.00" waitingCount="1" stopTime="0.00" timeLoss="47.24" rerouteNo="0" devices="tripinfo_veh59" vType="passenger" speedFactor="1.06" vaporized=""/>
    <tripinfo id="veh186" depart="97.00" departLane="353939570#3_1" departPos="66.22" departSpeed="0.00" departDelay="0.28" arrival="177.00" arrivalLane="33909936#1_1" arrivalPos="134.25" arrivalSpeed="14.13" duration="80.00" routeLength="1077.88" waitingTime="0.00" waitingCount="0" stopTime="0.00" timeLoss="6.42" rerouteNo="0" devices="tripinfo_veh186" vType="passenger" speedFactor="1.06" vaporized=""/>
    <tripinfo id="veh269" depart="140.00" departLane="40236220#2_1" departPos="10.28" departSpeed="0.00" departDelay="0.12" arrival="177.00" arrivalLane="354252039#0_1" arrivalPos="50.46" arrivalSpeed="13.55" duration="37.00" routeLength="339.78" waitingTime="1.00" waitingCount="1" stopTime="0.00" timeLoss="10.69" rerouteNo="0" devices="tripinfo_veh269" vType="passenger" speedFactor="1.00" vaporized=""/>
    <tripinfo id="veh163" depart="85.00" departLane="E14_2" departPos="80.36" departSpeed="0.00" departDelay="0.24" arrival="179.00" arrivalLane="48788485#9_1" arrivalPos="233.71" arrivalSpeed="11.82" duration="94.00" routeLength="926.80" waitingTime="1.00" waitingCount="1" stopTime="0.00" timeLoss="19.01" rerouteNo="0" devices="tripinfo_veh163" vType="delivery" speedFactor="0.94" vaporized=""/>
    <tripinfo id="veh67" depart="35.00" departLane="40305706#1_1" departPos="32.91" departSpeed="0.00" departDelay="0.16" arrival="180.00" arrivalLane="-1250915720#2_1" arrivalPos="2.90" arrivalSpeed="4.99" duration="145.00" routeLength="1440.88" waitingTime="0.00" waitingCount="0" stopTime="0.00" timeLoss="28.16" rerouteNo="0" devices="tripinfo_veh67" vType="passenger" speedFactor="1.08" vaporized=""/>
    <tripinfo id="veh69" depart="36.00" departLane="-43546789#3_1" departPos="36.62" departSpeed="0.00" departDelay="0.12" arrival="185.00" arrivalLane="-264868325_1" arrivalPos="96.14" arrivalSpeed="13.34" duration="149.00" routeLength="1687.63" waitingTime="0.00" waitingCount="0" stopTime="0.00" timeLoss="20.89" rerouteNo="0" devices="tripinfo_veh69" vType="passenger" speedFactor="0.98" vaporized=""/>
    <tripinfo id="veh197" depart="103.00" departLane="1250915720#5_1" departPos="0.84" departSpeed="0.00" departDelay="0.56" arrival="187.00" arrivalLane="48778508#2_1" arrivalPos="0.60" arrivalSpeed="15.10" duration="84.00" routeLength="894.83" waitingTime="0.00" waitingCount="0" stopTime="0.00" timeLoss="15.51" rerouteNo="0" devices="tripinfo_veh197" vType="passenger" speedFactor="1.10" vaporized=""/>
    <tripinfo id="veh16" depart="9.00" departLane="-1136301818_1" departPos="13.66" departSpeed="0.00" departDelay="0.68" arrival="188.00" arrivalLane="43544179#3_1" arrivalPos="126.73" arrivalSpeed="12.98" duration="179.00" routeLength="1835.65" waitingTime="0.00" waitingCount="0" stopTime="0.00" timeLoss="38.17" rerouteNo="0" devices="tripinfo_veh16" vType="passenger" speedFactor="1.01" vaporized=""/>
    <tripinfo id="veh110" depart="58.00" departLane="92198452#0_1" departPos="4.16" departSpeed="0.00" departDelay="0.80" arrival="190.00" arrivalLane="-222609004#0_1" arrivalPos="31.40" arrivalSpeed="9.58" duration="132.00" routeLength="1104.44" waitingTime="13.00" waitingCount="1" stopTime="0.00" timeLoss="34.44" rerouteNo="0" devices="tripinfo_veh110" vType="motorcycle" speedFactor="0.84" vaporized=""/>
    <tripinfo id="veh21" depart="11.00" departLane="222605084#9_1" departPos="0.73" departSpeed="0.00" departDelay="0.08" arrival="194.00" arrivalLane="40299739#0_1" arrivalPos="94.72" arrivalSpeed="16.01" duration="183.00" routeLength="1817.31" waitingTime="0.00" waitingCount="0" stopTime="0.00" timeLoss="50.36" rerouteNo="0" devices="tripinfo_veh21" vType="passenger" speedFactor="1.15" vaporized=""/>
    <tripinfo id="veh260" depart="136.00" departLane="43546039#1_1" departPos="43.03" departSpeed="0.00" departDelay="0.80" arrival="194.00" arrivalLane="222608881#0_1" arrivalPos="168.96" arrivalSpeed="14.15" duration="58.00" routeLength="626.33" waitingTime="0.00" waitingCount="0" stopTime="0.00" timeLoss="13.32" rerouteNo="0" devices="tripinfo_veh260" vType="passenger" speedFactor="1.09" vaporized=""/>
    <tripinfo id="veh117" depart="61.00" departLane="-859728207_0" departPos="13.23" departSpeed="0.00" departDelay="0.16" arrival="196.00" arrivalLane="-859726677#0_1" arrivalPos="35.20" arrivalSpeed="5.10" duration="135.00" routeLength="1214.31" waitingTime="21.00" waitingCount="1" stopTime="0.00" timeLoss="37.30" rerouteNo="0" devices="tripinfo_veh117" vType="passenger" speedFactor="1.11" vaporized=""/>
    <tripinfo id="veh24" depart="13.00" departLane="48736607#0_1" departPos="20.96" departSpeed="0.00" departDelay="0.52" arrival="197.00" arrivalLane="-1136279381_1" arrivalPos="79.74" arrivalSpeed="7.56" duration="184.00" routeLength="756.48" waitingTime="103.00" waitingCount="1" stopTime="0.00" timeLoss="121.60" rerouteNo="0" devices="tripinfo_veh24" vType="passenger" speedFactor="0.99" vaporized=""/>
    <tripinfo id="veh39" depart="21.00" departLane="-48778449#2_1" departPos="25.74" departSpeed="0.00" departDelay="0.72" arrival="197.00" arrivalLane="1001108554_1" arrivalPos="3.48" arrivalSpeed="5.86" duration="176.00" routeLength="1840.19" waitingTime="7.00" waitingCount="1" stopTime="0.00" timeLoss="40.02" rerouteNo="0" devices="tripinfo_veh39" vType="passenger" speedFactor="1.17" vaporized=""/>
    <tripinfo id="veh56" depart="30.00" departLane="-1135854210_1" departPos="8.45" departSpeed="0.00" departDelay="0.88" arrival="198.00" arrivalLane="-48778498#2_1" arrivalPos="98.02" arrivalSpeed="14.04" duration="168.00" routeLength="1707.90" waitingTime="15.00" waitingCount="2" stopTime="0.00" timeLoss="44.23" rerouteNo="0" devices="tripinfo_veh56" vType="passenger" speedFactor="1.02" vaporized=""/>
    <tripinfo id="veh45" depart="24.00" departLane="-48778521#1_1" departPos="12.50" departSpeed="0.00" departDelay="0.60" arrival="199.00" arrivalLane="-33909936#2_1" arrivalPos="60.97" arrivalSpeed="12.39" duration="175.00" routeLength="1120.48" waitingTime="66.00" waitingCount="1" stopTime="0.00" timeLoss="84.62" rerouteNo="0" devices="tripinfo_veh45" vType="delivery" speedFactor="0.98" vaporized=""/>
    <tripinfo id="veh193" depart="102.00" departLane="48788485#7_1" departPos="81.87" departSpeed="0.00" departDelay="1.64" arrival="200.00" arrivalLane="1136283361_0" arrivalPos="47.88" arrivalSpeed="4.79" duration="98.00" routeLength="1082.46" waitingTime="0.00" waitingCount="0" stopTime="0.00" timeLoss="19.56" rerouteNo="0" devices="tripinfo_veh193" vType="motorcycle" speedFactor="1.14" vaporized=""/>
    <personinfo id="ped1" depart="5.00" type="DEFAULT_PEDTYPE" speedFactor="1.20" duration="196.00" waitingTime="0.00" timeLoss="19.62" traveltime="196.00">
        <walk depart="5.00" departPos="0.00" arrival="201.00" arrivalPos="84.48" duration="196.00" routeLength="294.07" timeLoss="19.62" maxSpeed="1.67"/>
    </personinfo>
    <tripinfo id="veh120" depart="63.00" departLane="-48736638#1_1" departPos="46.68" departSpeed="0.00" departDelay="0.60" arrival="202.00" arrivalLane="48778492_1" arrivalPos="35.41" arrivalSpeed="9.25" duration="139.00" routeLength="1109.08" waitingTime="34.00" waitingCount="1" stopTime="0.00" timeLoss="67.15" rerouteNo="0" devices="tripinfo_veh120" vType="passenger" speedFactor="1.21" vaporized=""/>
    <tripinfo id="veh80" depart="42.00" departLane="-289113778#1_1" departPos="392.39" departSpeed="0.00" departDelay="0.40" arrival="203.00" arrivalLane="250295380#0_1" arrivalPos="168.52" arrivalSpeed="13.28" duration="161.00" routeLength="1911.43" waitingTime="0.00" waitingCount="0" stopTime="0.00" timeLoss="20.15" rerouteNo="0" devices="tripinfo_veh80" vType="emergency" speedFactor="1.00" vaporized=""/>
    <tripinfo id="veh206" depart="108.00" departLane="-984513295_0" departPos="13.08" departSpeed="0.00" departDelay="0.88" arrival="203.00" arrivalLane="-1136279381_1" arrivalPos="79.74" arrivalSpeed="9.55" duration="95.00" routeLength="446.39" waitingTime="46.00" waitingCount="1" stopTime="0.00" timeLoss="61.86" rerouteNo="0" devices="tripinfo_veh206" vType="passenger" speedFactor="1.26" vaporized=""/>
    <tripinfo id="veh219" depart="114.00" departLane="-48778525#0_1" departPos="24.53" departSpeed="0.00" departDelay="0.12" arrival="203.00" arrivalLane="-43544179#6_1" arrivalPos="35.50" arrivalSpeed="14.83" duration="89.00" routeLength="1082.89" waitingTime="0.00" waitingCount="0" stopTime="0.00" timeLoss="17.48" rerouteNo="0" devices="tripinfo_veh219" vType="delivery" speedFactor="1.13" vaporized=""/>
    <tripinfo id="veh275" depart="143.00" departLane="92198453#5_1" departPos="26.06" departSpeed="0.00" departDelay="0.00" arrival="203.00" arrivalLane="-43546688#2_1" arrivalPos="41.74" arrivalSpeed="14.04" duration="60.00" routeLength="680.71" waitingTime="0.00" waitingCount="0" stopTime="0.00" timeLoss="16.45" rerouteNo="0" devices="tripinfo_veh275" vType="passenger" speedFactor="1.16" vaporized=""/>
    <tripinfo id="veh100" depart="52.00" departLane="-48778496_1" departPos="30.78" departSpeed="0.00" departDelay="0.00" arrival="205.00" arrivalLane="40299276#1_1" arrivalPos="70.79" arrivalSpeed="13.27" duration="153.00" routeLength="1703.42" waitingTime="0.00" waitingCount="0" stopTime="0.00" timeLoss="25.76" rerouteNo="0" devices="tripinfo_veh100" vType="passenger" speedFactor="1.03" vaporized=""/>
    <tripinfo id="veh119" depart="62.00" departLane="-48778512_1" departPos="42.45" departSpeed="0.00" departDelay="0.12" arrival="206.00" arrivalLane="-43546460#11_1" arrivalPos="10.09" arrivalSpeed="7.32" duration="144.00" routeLength="1701.59" waitingTime="0.00" waitingCount="0" stopTime="0.00" timeLoss="23.52" rerouteNo="0" devices="tripinfo_veh119" vType="delivery" speedFactor="1.06" vaporized=""/>
    <tripinfo id="veh214" depart="112.00" departLane="-1250915722#1_1" departPos="14.54" departSpeed="0.00" departDelay="0.72" arrival="206.00" arrivalLane="-40330571#2_1" arrivalPos="24.26" arrivalSpeed="13.58" duration="94.00" routeLength="707.19" waitingTime="4.00" waitingCount="1" stopTime="0.00" timeLoss="20.69" rerouteNo="0" devices="tripinfo_veh214" vType="passenger" speedFactor="1.00" vaporized=""/>
    <tripinfo id="veh262" depart="137.00" departLane="43546039#3_1" departPos="16.47" departSpeed="0.00" departDelay="0.76" arrival="207.00" arrivalLane="143207979#4_1" arrivalPos="45.53" arrivalSpeed="14.17" duration="70.00" routeLength="511.61" waitingTime="20.00" waitingCount="1" stopTime="0.00" timeLoss="35.48" rerouteNo="0" devices="tripinfo_veh262" vType="passenger" speedFactor="1.13" vaporized=""/>
    <tripinfo id="veh358" depart="187.00" departLane="-1250915720#3_1" departPos="0.38" departSpeed="0.00" departDelay="0.84" arrival="209.00" arrivalLane="1250915720#1_1" arrivalPos="5.08" arrivalSpeed="5.01" duration="22.00" routeLength="98.90" waitingTime="0.00" waitingCount="0" stopTime="0.00" timeLoss="3.25" rerouteNo="0" devices="tripinfo_veh358" vType="passenger" speedFactor="0.99" vaporized=""/>
    <tripinfo id="veh178" depart="93.00" departLane="-48736607#1_1" departPos="110.28" departSpeed="0.00" departDelay="0.44" arrival="212.00" arrivalLane="48736657#1_1" arrivalPos="19.18" arrivalSpeed="14.36" duration="119.00" routeLength="750.08" waitingTime="48.00" waitingCount="1" stopTime="0.00" timeLoss="66.04" rerouteNo="0" devices="tripinfo_veh178" vType="motorcycle" speedFactor="1.10" vaporized=""/>
    <tripinfo id="veh191" depart="100.00" departLane="422283114_0" departPos="39.98" departSpeed="0.00" departDelay="0.68" arrival="212.00" arrivalLane="-353939570#0_1" arrivalPos="178.43" arrivalSpeed="12.80" duration="112.00" routeLength="976.04" waitingTime="0.00" waitingCount="0" stopTime="0.00" timeLoss="20.94" rerouteNo="0" devices="tripinfo_veh191" vType="delivery" speedFactor="0.99" vaporized=""/>
    <tripinfo id="veh31" depart="17.00" departLane="48736624#3_1" departPos="18.40" departSpeed="0.00" departDelay="0.88" arrival="213.00" arrivalLane="48736665_1" arrivalPos="14.66" arrivalSpeed="9.39" duration="196.00" routeLength="874.58" waitingTime="113.00" waitingCount="1" stopTime="0.00" timeLoss="132.99" rerouteNo="0" devices="tripinfo_veh31" vType="passenger" speedFactor="1.07" vaporized=""/>
    <tripinfo id="veh64" depart="34.00" departLane="40330575#4_1" departPos="61.03" departSpeed="0.00" departDelay="0.72" arrival="214.00" arrivalLane="-43546105#1_1" arrivalPos="277.53" arrivalSpeed="14.61" duration="180.00" routeLength="2240.77" waitingTime="1.00" waitingCount="1" stopTime="0.00" timeLoss="28.72" rerouteNo="0" devices="tripinfo_veh64" vType="passenger" speedFactor="1.09" vaporized=""/>
    <tripinfo id="veh98" depart="51.00" departLane="-48736613#4_1" departPos="18.05" departSpeed="0.00" departDelay="0.04" arrival="215.00" arrivalLane="48778489#3_2" arrivalPos="140.23" arrivalSpeed="12.17" duration="164.00" routeLength="1716.27" waitingTime="0.00" waitingCount="0" stopTime="0.00" timeLoss="33.59" rerouteNo="0" devices="tripinfo_veh98" vType="motorcycle" speedFactor="0.98" vaporized=""/>
    <personinfo id="ped14" depart="70.00" type="DEFAULT_PEDTYPE" speedFactor="1.11" duration="147.00" waitingTime="0.00" timeLoss="14.31" traveltime="147.00">
        <walk depart="70.00" departPos="0.00" arrival="217.00" arrivalPos="22.14" duration="147.00" routeLength="205.18" timeLoss="14.31" maxSpeed="1.55"/>
    </personinfo>
    <tripinfo id="veh304" depart="159.00" departLane="40266619_1" departPos="22.29" departSpeed="0.00" departDelay="0.92" arrival="217.00" arrivalLane="48778472_1" arrivalPos="49.54" arrivalSpeed="12.55" duration="58.00" routeLength="578.47" waitingTime="0.00" waitingCount="0" stopTime="0.00" timeLoss="13.38" rerouteNo="0" devices="tripinfo_veh304" vType="passenger" speedFactor="1.00" vaporized=""/>
    <tripinfo id="veh149" depart="78.00" departLane="-43544624#3_1" departPos="108.23" departSpeed="0.00" departDelay="0.52" arrival="218.00" arrivalLane="-43546793_1" arrivalPos="192.09" arrivalSpeed="14.42" duration="140.00" routeLength="1744.79" waitingTime="0.00" waitingCount="0" stopTime="0.00" timeLoss="21.15" rerouteNo="0" devices="tripinfo_veh149" vType="motorcycle" speedFactor="1.08" vaporized=""/>
    <tripinfo id="veh252" depart="132.00" departLane="-43573769#0_1" departPos="19.42" departSpeed="0.00" departDelay="0.96" arrival="219.00" arrivalLane="-40236144#2_1" arrivalPos="51.63" arrivalSpeed="14.10" duration="87.00" routeLength="1063.78" waitingTime="0.00" waitingCount="0" stopTime="0.00" timeLoss="12.40" rerouteNo="0" devices="tripinfo_veh252" vType="passenger" speedFactor="1.05" vaporized=""/>
    <tripinfo id="veh15" depart="8.00" departLane="945794108_1" departPos="19.62" departSpeed="0.00" departDelay="0.20" arrival="221.00" arrivalLane="40299276#1_1" arrivalPos="70.79" arrivalSpeed="11.99" duration="213.00" routeLength="2275.36" waitingTime="0.00" waitingCount="0" stopTime="0.00" timeLoss="23.64" rerouteNo="0" devices="tripinfo_veh15" vType="passenger" speedFactor="0.89" vaporized=""/>
    <tripinfo id="veh7" depart="4.00" departLane="383582497_0" departPos="23.12" departSpeed="0.00" departDelay="0.36" arrival="222.00" arrivalLane="174818022#2_0" arrivalPos="96.55" arrivalSpeed="5.26" duration="218.00" routeLength="1433.35" waitingTime="61.00" waitingCount="1" stopTime="0.00" timeLoss="83.06" rerouteNo="0" devices="tripinfo_veh7" vType="passenger" speedFactor="1.12" vaporized=""/>
    <tripinfo id="veh65" depart="34.00" departLane="40266909#0_1" departPos="18.20" departSpeed="0.00" departDelay="0.20" arrival="222.00" arrivalLane="250295380#0_1" arrivalPos="168.52" arrivalSpeed="12.24" duration="188.00" routeLength="1778.65" waitingTime="5.00" waitingCount="1" stopTime="0.00" timeLoss="38.99" rerouteNo="0" devices="tripinfo_veh65" vType="passenger" speedFactor="0.90" vaporized=""/>
    <tripinfo id="veh41" depart="22.00" departLane="222605084#3_1" departPos="1.71" departSpeed="0.00" departDelay="0.68" arrival="223.00" arrivalLane="48797765#2_1" arrivalPos="21.05" arrivalSpeed="12.85" duration="201.00" routeLength="1896.54" waitingTime="0.00" waitingCount="0" stopTime="0.00" timeLoss="38.48" rerouteNo="0" devices="tripinfo_veh41" vType="motorcycle" speedFactor="1.00" vaporized=""/>
    <tripinfo id="veh32" depart="17.00" departLane="92198453#4_1" departPos="4.13" departSpeed="0.00" departDelay="0.36" arrival="224.00" arrivalLane="-43544179#3_1" arrivalPos="126.73" arrivalSpeed="13.73" duration="207.00" routeLength="2416.16" waitingTime="0.00" waitingCount="0" stopTime="0.00" timeLoss="34.28" rerouteNo="0" devices="tripinfo_veh32" vType="passenger" speedFactor="1.04" vaporized=""/>
    <tripinfo id="veh190" depart="99.00" departLane="-1136289992_1" departPos="11.48" departSpeed="0.00" departDelay="0.20" arrival="225.00" arrivalLane="48778431#5_1" arrivalPos="316.25" arrivalSpeed="5.62" duration="126.00" routeLength="668.60" waitingTime="0.00" waitingCount="0" stopTime="0.00" timeLoss="9.94" rerouteNo="0" devices="tripinfo_veh190" vType="bicycle" speedFactor="1.04" vaporized=""/>