<?xml version="1.0" encoding="UTF-8"?>

<!-- generated on 2025-06-12 11:57:35 by Eclipse SUMO sumo Version 1.22.0
<sumoConfiguration xmlns:xsi="http://www.w3.org/2001/XMLSchema-instance" xsi:noNamespaceSchemaLocation="http://sumo.dlr.de/xsd/sumoConfiguration.xsd">

    <input>
        <net-file value="E:/licenta/oras-mediu/2025-06-05-11-45-23/osm.net.xml"/>
        <route-files value="E:/licenta/oras-mediu/2025-06-05-11-45-23/full.rou.xml,E:/licenta/oras-mediu/2025-06-05-11-45-23/ ped.rou.xml,E:/licenta/oras-mediu/2025-06-05-11-45-23/ truck.rou.xml"/>
        <additional-files value="E:/licenta/oras-mediu/2025-06-05-11-45-23/osm.poly.xml,E:/licenta/oras-mediu/2025-06-05-11-45-23/ vtypes.xml"/>
    </input>

    <output>
        <summary-output value="E:/licenta/oras-mediu/2025-06-05-11-45-23/summary.xml"/>
        <tripinfo-output value="E:/licenta/oras-mediu/2025-06-05-11-45-23/tripinfo.xml"/>
    </output>

    <processing>
        <ignore-route-errors value="true"/>
        <tls.actuated.jam-threshold value="30"/>
    </processing>

    <routing>
        <device.rerouting.adaptation-steps value="18"/>
        <device.rerouting.adaptation-interval value="10"/>
    </routing>

    <report>
        <verbose value="true"/>
        <duration-log.statistics value="true"/>
        <no-step-log value="true"/>
    </report>

    <traci_server>
        <remote-port value="63602"/>
    </traci_server>

    <gui_only>
        <gui-settings-file value="E:/licenta/oras-mediu/2025-06-05-11-45-23/osm.view.xml"/>
    </gui_only>

</sumoConfiguration>
-->

<tripinfos xmlns:xsi="http://www.w3.org/2001/XMLSchema-instance" xsi:noNamespaceSchemaLocation="http://sumo.dlr.de/xsd/tripinfo_file.xsd">
    <tripinfo id="veh8" depart="6.00" departLane="-48778524#3_1" departPos="7.48" departSpeed="0.00" departDelay="0.32" arrival="44.00" arrivalLane="-43544588#1_1" arrivalPos="38.29" arrivalSpeed="11.34" duration="38.00" routeLength="327.75" waitingTime="0.00" waitingCount="0" stopTime="0.00" timeLoss="9.05" rerouteNo="0" devices="tripinfo_veh8" vType="passenger" speedFactor="0.90" vaporized=""/>
    <tripinfo id="veh71" depart="51.00" departLane="48736632#0_1" departPos="29.04" departSpeed="0.00" departDelay="0.59" arrival="61.00" arrivalLane="48736632#0_1" arrivalPos="108.22" arrivalSpeed="12.87" duration="10.00" routeLength="79.18" waitingTime="0.00" waitingCount="0" stopTime="0.00" timeLoss="3.47" rerouteNo="0" devices="tripinfo_veh71" vType="passenger" speedFactor="1.01" vaporized=""/>
    <tripinfo id="veh23" depart="17.00" departLane="1136119743#0_1" departPos="23.37" departSpeed="0.00" departDelay="0.67" arrival="71.00" arrivalLane="-40330571#2_1" arrivalPos="24.26" arrivalSpeed="16.00" duration="54.00" routeLength="532.83" waitingTime="0.00" waitingCount="0" stopTime="0.00" timeLoss="11.74" rerouteNo="0" devices="tripinfo_veh23" vType="passenger" speedFactor="1.15" vaporized=""/>
    <tripinfo id="veh88" depart="63.00" departLane="40265780#0_1" departPos="44.72" departSpeed="0.00" departDelay="0.52" arrival="96.00" arrivalLane="-258551284#1_1" arrivalPos="135.26" arrivalSpeed="13.87" duration="33.00" routeLength="349.59" waitingTime="0.00" waitingCount="0" stopTime="0.00" timeLoss="6.96" rerouteNo="0" devices="tripinfo_veh88" vType="passenger" speedFactor="1.03" vaporized=""/>
    <tripinfo id="veh34" depart="25.00" departLane="48778443#2_1" departPos="36.67" departSpeed="0.00" departDelay="0.86" arrival="99.00" arrivalLane="40236144#0_1" arrivalPos="70.01" arrivalSpeed="13.79" duration="74.00" routeLength="740.47" waitingTime="0.00" waitingCount="0" stopTime="0.00" timeLoss="16.29" rerouteNo="0" devices="tripinfo_veh34" vType="passenger" speedFactor="1.03" vaporized=""/>
    <tripinfo id="veh41" depart="30.00" departLane="43573573#4_1" departPos="69.56" departSpeed="0.00" departDelay="0.89" arrival="99.00" arrivalLane="-43544138#5_1" arrivalPos="39.45" arrivalSpeed="12.90" duration="69.00" routeLength="749.75" waitingTime="0.00" waitingCount="0" stopTime="0.00" timeLoss="15.05" rerouteNo="0" devices="tripinfo_veh41" vType="passenger" speedFactor="1.06" vaporized=""/>
    <tripinfo id="veh39" depart="28.00" departLane="222609002#1_1" departPos="22.35" departSpeed="0.00" departDelay="0.31" arrival="101.00" arrivalLane="48778500#2_1" arrivalPos="217.31" arrivalSpeed="7.37" duration="73.00" routeLength="470.42" waitingTime="0.00" waitingCount="0" stopTime="0.00" timeLoss="35.10" rerouteNo="0" devices="tripinfo_veh39" vType="passenger" speedFactor="0.95" vaporized=""/>
    <tripinfo id="veh24" depart="18.00" departLane="-48778516_1" departPos="53.80" departSpeed="0.00" departDelay="0.96" arrival="111.00" arrivalLane="-996984132_0" arrivalPos="105.31" arrivalSpeed="6.13" duration="93.00" routeLength="947.22" waitingTime="0.00" waitingCount="0" stopTime="0.00" timeLoss="19.08" rerouteNo="0" devices="tripinfo_veh24" vType="passenger" speedFactor="1.12" vaporized=""/>
    <personinfo id="ped19" depart="95.00" type="DEFAULT_PEDTYPE" speedFactor="0.95" duration="18.00" waitingTime="0.00" timeLoss="2.48" traveltime="18.00">
        <walk depart="95.00" departPos="0.00" arrival="113.00" arrivalPos="6.80" duration="18.00" routeLength="20.55" timeLoss="2.48" maxSpeed="1.32"/>
    </personinfo>
    <tripinfo id="veh11" depart="8.00" departLane="250295383#3_1" departPos="3.68" departSpeed="0.00" departDelay="0.19" arrival="116.00" arrivalLane="40236153#1_1" arrivalPos="105.33" arrivalSpeed="12.93" duration="108.00" routeLength="1082.77" waitingTime="2.00" waitingCount="1" stopTime="0.00" timeLoss="24.95" rerouteNo="0" devices="tripinfo_veh11" vType="delivery" speedFactor="0.97" vaporized=""/>
    <tripinfo id="veh43" depart="31.00" departLane="-256555440#1_1" departPos="46.75" departSpeed="0.00" departDelay="0.47" arrival="117.00" arrivalLane="48736613#3_1" arrivalPos="42.68" arrivalSpeed="14.15" duration="86.00" routeLength="840.98" waitingTime="0.00" waitingCount="0" stopTime="0.00" timeLoss="17.22" rerouteNo="0" devices="tripinfo_veh43" vType="passenger" speedFactor="1.05" vaporized=""/>
    <tripinfo id="veh119" depart="85.00" departLane="43544001#1_1" departPos="24.03" departSpeed="0.00" departDelay="0.51" arrival="125.00" arrivalLane="-43544624#1_1" arrivalPos="93.66" arrivalSpeed="16.13" duration="40.00" routeLength="533.23" waitingTime="0.00" waitingCount="0" stopTime="0.00" timeLoss="7.32" rerouteNo="0" devices="tripinfo_veh119" vType="passenger" speedFactor="1.21" vaporized=""/>
    <tripinfo id="veh3" depart="3.00" departLane="48797765#0_1" departPos="13.27" departSpeed="0.00" departDelay="0.87" arrival="126.00" arrivalLane="647610982#3_1" arrivalPos="42.20" arrivalSpeed="12.70" duration="123.00" routeLength="1374.14" waitingTime="0.00" waitingCount="0" stopTime="0.00" timeLoss="15.11" rerouteNo="0" devices="tripinfo_veh3" vType="passenger" speedFactor="0.94" vaporized=""/>
    <tripinfo id="veh111" depart="79.00" departLane="48736613#3_1" departPos="18.23" departSpeed="0.00" departDelay="0.19" arrival="127.00" arrivalLane="250295383#3_1" arrivalPos="11.98" arrivalSpeed="11.91" duration="48.00" routeLength="466.12" waitingTime="0.00" waitingCount="0" stopTime="0.00" timeLoss="12.78" rerouteNo="0" devices="tripinfo_veh111" vType="motorcycle" speedFactor="1.04" vaporized=""/>
    <tripinfo id="veh2" depart="2.00" departLane="43546460#4_1" departPos="115.64" departSpeed="0.00" departDelay="0.58" arrival="133.00" arrivalLane="-647610982#0_1" arrivalPos="194.02" arrivalSpeed="11.62" duration="131.00" routeLength="1736.37" waitingTime="0.00" waitingCount="0" stopTime="0.00" timeLoss="13.49" rerouteNo="0" devices="tripinfo_veh2" vType="passenger" speedFactor="1.08" vaporized=""/>
    <tripinfo id="veh93" depart="67.00" departLane="43547579#0_1" departPos="239.06" departSpeed="0.00" departDelay="0.97" arrival="133.00" arrivalLane="48778449#0_1" arrivalPos="44.07" arrivalSpeed="12.81" duration="66.00" routeLength="648.75" waitingTime="0.00" waitingCount="0" stopTime="0.00" timeLoss="14.90" rerouteNo="0" devices="tripinfo_veh93" vType="delivery" speedFactor="1.01" vaporized=""/>
    <tripinfo id="veh6" depart="5.00" departLane="174818022#2_0" departPos="64.98" departSpeed="0.00" departDelay="0.74" arrival="150.00" arrivalLane="-1250915720#5_1" arrivalPos="1.24" arrivalSpeed="4.61" duration="145.00" routeLength="1350.58" waitingTime="3.00" waitingCount="1" stopTime="0.00" timeLoss="20.02" rerouteNo="0" devices="tripinfo_veh6" vType="passenger" speedFactor="0.92" vaporized=""/>
    <tripinfo id="veh63" depart="45.00" departLane="-250295383#6_1" departPos="14.82" departSpeed="0.00" departDelay="0.27" arrival="151.00" arrivalLane="43547296#0_1" arrivalPos="158.91" arrivalSpeed="12.09" duration="106.00" routeLength="912.30" waitingTime="7.00" waitingCount="1" stopTime="0.00" timeLoss="29.88" rerouteNo="0" devices="tripinfo_veh63" vType="passenger" speedFactor="0.92" vaporized=""/>
    <tripinfo id="veh72" depart="52.00" departLane="289113877#1_1" departPos="0.77" departSpeed="0.00" departDelay="0.88" arrival="155.00" arrivalLane="43544197#2_1" arrivalPos="42.39" arrivalSpeed="12.75" duration="103.00" routeLength="1149.00" waitingTime="0.00" waitingCount="0" stopTime="0.00" timeLoss="13.18" rerouteNo="0" devices="tripinfo_veh72" vType="motorcycle" speedFactor="0.94" vaporized=""/>
    <tripinfo id="veh49" depart="35.00" departLane="-40334245#0_1" departPos="9.84" departSpeed="0.00" departDelay="0.21" arrival="159.00" arrivalLane="40299739#0_1" arrivalPos="94.72" arrivalSpeed="13.85" duration="124.00" routeLength="1368.57" waitingTime="1.00" waitingCount="1" stopTime="0.00" timeLoss="23.23" rerouteNo="0" devices="tripinfo_veh49" vType="passenger" speedFactor="1.02" vaporized=""/>
    <tripinfo id="veh84" depart="61.00" departLane="-40236228#0_1" departPos="49.74" departSpeed="0.00" departDelay="1.36" arrival="160.00" arrivalLane="-250295383#3_1" arrivalPos="11.99" arrivalSpeed="14.59" duration="99.00" routeLength="1127.29" waitingTime="0.00" waitingCount="0" stopTime="0.00" timeLoss="19.54" rerouteNo="0" devices="tripinfo_veh84" vType="passenger" speedFactor="1.06" vaporized=""/>
    <tripinfo id="veh118" depart="84.00" departLane="-1136283379#1_1" departPos="18.65" departSpeed="0.00" departDelay="0.22" arrival="167.00" arrivalLane="48778510#0_1" arrivalPos="7.19" arrivalSpeed="8.52" duration="83.00" routeLength="938.24" waitingTime="0.00" waitingCount="0" stopTime="0.00" timeLoss="14.55" rerouteNo="0" devices="tripinfo_veh118" vType="delivery" speedFactor="1.06" vaporized=""/>
    <tripinfo id="veh73" depart="52.00" departLane="48778485#0_1" departPos="13.58" departSpeed="0.00" departDelay="0.17" arrival="168.00" arrivalLane="258551283#1_1" arrivalPos="55.98" arrivalSpeed="10.92" duration="116.00" routeLength="1079.08" waitingTime="0.00" waitingCount="0" stopTime="0.00" timeLoss="17.84" rerouteNo="0" devices="tripinfo_veh73" vType="passenger" speedFactor="0.83" vaporized=""/>
    <tripinfo id="veh164" depart="117.00" departLane="-40265774#0_2" departPos="105.79" departSpeed="0.00" departDelay="0.56" arrival="169.00" arrivalLane="-43546109_1" arrivalPos="180.58" arrivalSpeed="13.14" duration="52.00" routeLength="566.90" waitingTime="0.00" waitingCount="0" stopTime="0.00" timeLoss="9.73" rerouteNo="0" devices="tripinfo_veh164" vType="passenger" speedFactor="1.03" vaporized=""/>
    <tripinfo id="veh22" depart="16.00" departLane="383582497_0" departPos="29.79" departSpeed="0.00" departDelay="0.38" arrival="174.00" arrivalLane="984513295_0" arrivalPos="47.07" arrivalSpeed="4.57" duration="158.00" routeLength="1581.35" waitingTime="0.00" waitingCount="0" stopTime="0.00" timeLoss="20.87" rerouteNo="0" devices="tripinfo_veh22" vType="passenger" speedFactor="0.89" vaporized=""/>
    <tripinfo id="veh91" depart="65.00" departLane="-492965073#8_1" departPos="51.81" departSpeed="0.00" departDelay="0.39" arrival="176.00" arrivalLane="-383582509_0" arrivalPos="91.86" arrivalSpeed="6.30" duration="111.00" routeLength="1265.68" waitingTime="0.00" waitingCount="0" stopTime="0.00" timeLoss="25.99" rerouteNo="0" devices="tripinfo_veh91" vType="passenger" speedFactor="1.25" vaporized=""/>
    <tripinfo id="veh94" depart="67.00" departLane="-984521611#0_0" departPos="3.18" departSpeed="0.00" departDelay="0.26" arrival="179.00" arrivalLane="-92198453#0_1" arrivalPos="257.77" arrivalSpeed="14.97" duration="112.00" routeLength="1343.37" waitingTime="3.00" waitingCount="1" stopTime="0.00" timeLoss="21.43" rerouteNo="0" devices="tripinfo_veh94" vType="passenger" speedFactor="1.10" vaporized=""/>
    <tripinfo id="veh182" depart="130.00" departLane="48736613#3_1" departPos="6.76" departSpeed="0.00" departDelay="0.78" arrival="179.00" arrivalLane="48778443#2_1" arrivalPos="37.75" arrivalSpeed="12.05" duration="49.00" routeLength="266.76" waitingTime="0.00" waitingCount="0" stopTime="0.00" timeLoss="11.36" rerouteNo="0" devices="tripinfo_veh182" vType="passenger" speedFactor="0.91" vaporized=""/>
    <tripinfo id="veh168" depart="120.00" departLane="-1135854210_1" departPos="1.97" departSpeed="0.00" departDelay="0.72" arrival="185.00" arrivalLane="E12_1" arrivalPos="184.12" arrivalSpeed="12.61" duration="65.00" routeLength="683.24" waitingTime="0.00" waitingCount="0" stopTime="0.00" timeLoss="11.67" rerouteNo="0" devices="tripinfo_veh168" vType="emergency" speedFactor="1.00" vaporized=""/>
    <tripinfo id="veh35" depart="25.00" departLane="-945793490#1_1" departPos="4.79" departSpeed="0.00" departDelay="0.15" arrival="187.00" arrivalLane="1136283379#1_1" arrivalPos="30.99" arrivalSpeed="8.58" duration="162.00" routeLength="1169.66" waitingTime="25.00" waitingCount="2" stopTime="0.00" timeLoss="55.86" rerouteNo="0" devices="tripinfo_veh35" vType="passenger" speedFactor="1.07" vaporized=""/>
    <tripinfo id="veh28" depart="20.00" departLane="-250295383#6_1" departPos="4.64" departSpeed="0.00" departDelay="0.12" arrival="188.00" arrivalLane="40236203#0_1" arrivalPos="83.35" arrivalSpeed="13.52" duration="168.00" routeLength="1405.03" waitingTime="29.00" waitingCount="1" stopTime="0.00" timeLoss="62.73" rerouteNo="0" devices="tripinfo_veh28" vType="motorcycle" speedFactor="1.02" vaporized=""/>
    <tripinfo id="veh4" depart="3.00" departLane="-48736647#1_1" departPos="22.37" departSpeed="0.00" departDelay="0.16" arrival="190.00" arrivalLane="671642315_1" arrivalPos="17.80" arrivalSpeed="10.48" duration="187.00" routeLength="2175.01" waitingTime="3.00" waitingCount="1" stopTime="0.00" timeLoss="29.37" rerouteNo="0" devices="tripinfo_veh4" vType="passenger" speedFactor="1.02" vaporized=""/>
    <personinfo id="ped12" depart="60.00" type="DEFAULT_PEDTYPE" speedFactor="1.07" duration="134.00" waitingTime="0.00" timeLoss="20.91" traveltime="134.00">
        <walk depart="60.00" departPos="0.00" arrival="194.00" arrivalPos="21.20" duration="134.00" routeLength="168.27" timeLoss="20.91" maxSpeed="1.49"/>
    </personinfo>
    <tripinfo id="veh86" depart="62.00" departLane="383582498_0" departPos="161.99" departSpeed="0.00" departDelay="0.94" arrival="204.00" arrivalLane="258551279_0" arrivalPos="179.06" arrivalSpeed="4.94" duration="142.00" routeLength="1426.74" waitingTime="0.00" waitingCount="0" stopTime="0.00" timeLoss="19.54" rerouteNo="0" devices="tripinfo_veh86" vType="passenger" speedFactor="1.08" vaporized=""/>
    <tripinfo id="veh32" depart="23.00" departLane="578560104#4_1" departPos="0.31" departSpeed="0.00" departDelay="0.28" arrival="205.00" arrivalLane="43544001#15_1" arrivalPos="24.26" arrivalSpeed="14.71" duration="182.00" routeLength="2180.88" waitingTime="2.00" waitingCount="1" stopTime="0.00" timeLoss="35.58" rerouteNo="0" devices="tripinfo_veh32" vType="passenger" speedFactor="1.10" vaporized=""/>
    <tripinfo id="veh259" depart="184.00" departLane="-1136283380_1" departPos="16.11" departSpeed="0.00" departDelay="0.11" arrival="207.00" arrivalLane="48778493#1_1" arrivalPos="26.41" arrivalSpeed="14.97" duration="23.00" routeLength="191.24" waitingTime="2.00" waitingCount="1" stopTime="0.00" timeLoss="9.07" rerouteNo="0" devices="tripinfo_veh259" vType="passenger" speedFactor="1.13" vaporized=""/>
    <tripinfo id="veh137" depart="98.00" departLane="-48778503#1_1" departPos="4.30" departSpeed="0.00" departDelay="0.73" arrival="208.00" arrivalLane="143207979#5_1" arrivalPos="42.32" arrivalSpeed="15.64" duration="110.00" routeLength="1343.55" waitingTime="0.00" waitingCount="0" stopTime="0.00" timeLoss="21.32" rerouteNo="0" devices="tripinfo_veh137" vType="passenger" speedFactor="1.13" vaporized=""/>
    <tripinfo id="veh59" depart="42.00" departLane="671642318#0_1" departPos="69.59" departSpeed="0.00" departDelay="0.11" arrival="209.00" arrivalLane="251916699#0_1" arrivalPos="41.21" arrivalSpeed="14.29" duration="167.00" routeLength="1863.07" waitingTime="0.00" waitingCount="0" stopTime="0.00" timeLoss="25.74" rerouteNo="0" devices="tripinfo_veh59" vType="passenger" speedFactor="1.06" vaporized=""/>
    <personinfo id="ped8" depart="40.00" type="DEFAULT_PEDTYPE" speedFactor="1.11" duration="170.00" waitingTime="0.00" timeLoss="15.97" traveltime="170.00">
        <walk depart="40.00" departPos="0.00" arrival="210.00" arrivalPos="111.78" duration="170.00" routeLength="237.53" timeLoss="15.97" maxSpeed="1.54"/>
    </personinfo>
    <tripinfo id="veh138" depart="98.00" departLane="40314853#1_1" departPos="86.69" departSpeed="0.00" departDelay="0.02" arrival="210.00" arrivalLane="48778473#0_1" arrivalPos="21.31" arrivalSpeed="11.52" duration="112.00" routeLength="1234.82" waitingTime="3.00" waitingCount="1" stopTime="0.00" timeLoss="18.39" rerouteNo="0" devices="tripinfo_veh138" vType="passenger" speedFactor="0.98" vaporized=""/>
    <tripinfo id="veh159" depart="113.00" departLane="-40299276#0_1" departPos="0.76" departSpeed="0.00" departDelay="0.11" arrival="211.00" arrivalLane="353939570#7_1" arrivalPos="11.98" arrivalSpeed="15.77" duration="98.00" routeLength="1266.35" waitingTime="0.00" waitingCount="0" stopTime="0.00" timeLoss="15.59" rerouteNo="0" devices="tripinfo_veh159" vType="passenger" speedFactor="1.15" vaporized=""/>
    <tripinfo id="veh0" depart="0.00" departLane="43546460#1_1" departPos="121.01" departSpeed="0.00" departDelay="0.00" arrival="215.00" arrivalLane="-43546506#0_1" arrivalPos="307.08" arrivalSpeed="11.94" duration="215.00" routeLength="2423.83" waitingTime="0.00" waitingCount="0" stopTime="0.00" timeLoss="31.66" rerouteNo="0" devices="tripinfo_veh0" vType="motorcycle" speedFactor="0.98" vaporized=""/>
    <tripinfo id="veh16" depart="12.00" departLane="40330575#1_1" departPos="1.20" departSpeed="0.00" departDelay="0.64" arrival="216.00" arrivalLane="43544624#0_1" arrivalPos="295.29" arrivalSpeed="13.19" duration="204.00" routeLength="2457.96" waitingTime="2.00" waitingCount="1" stopTime="0.00" timeLoss="24.99" rerouteNo="0" devices="tripinfo_veh16" vType="passenger" speedFactor="1.01" vaporized=""/>
    <tripinfo id="veh101" depart="72.00" departLane="-43544184#4_1" departPos="14.09" departSpeed="0.00" departDelay="0.29" arrival="221.00" arrivalLane="-40330557#2_1" arrivalPos="99.94" arrivalSpeed="13.66" duration="149.00" routeLength="1570.40" waitingTime="9.00" waitingCount="1" stopTime="0.00" timeLoss="33.87" rerouteNo="0" devices="tripinfo_veh101" vType="passenger" speedFactor="1.03" vaporized=""/>
    <tripinfo id="veh38" depart="27.00" departLane="354252039#0_1" departPos="24.22" departSpeed="0.00" departDelay="0.02" arrival="222.00" arrivalLane="-1250915724#2_1" arrivalPos="56.88" arrivalSpeed="6.01" duration="195.00" routeLength="1879.57" waitingTime="0.00" waitingCount="0" stopTime="0.00" timeLoss="36.56" rerouteNo="0" devices="tripinfo_veh38" vType="passenger" speedFactor="1.09" vaporized=""/>
    <tripinfo id="veh53" depart="38.00" departLane="48736618_1" departPos="3.88" departSpeed="0.00" departDelay="0.37" arrival="222.00" arrivalLane="-40299739#0_1" arrivalPos="93.05" arrivalSpeed="13.17" duration="184.00" routeLength="1482.57" waitingTime="44.00" waitingCount="1" stopTime="0.00" timeLoss="71.76" rerouteNo="0" devices="tripinfo_veh53" vType="delivery" speedFactor="0.99" vaporized=""/>
    <tripinfo id="veh140" depart="100.00" departLane="-40330575#1_1" departPos="3.12" departSpeed="0.00" departDelay="0.60" arrival="223.00" arrivalLane="354252039#1_1" arrivalPos="19.16" arrivalSpeed="11.48" duration="123.00" routeLength="867.60" waitingTime="30.00" waitingCount="2" stopTime="0.00" timeLoss="50.49" rerouteNo="0" devices="tripinfo_veh140" vType="passenger" speedFactor="0.90" vaporized=""/>
    <tripinfo id="veh252" depart="179.00" departLane="383582497_0" departPos="22.06" departSpeed="0.00" departDelay="0.08" arrival="224.00" arrivalLane="-250295383#0_1" arrivalPos="29.94" arrivalSpeed="13.91" duration="45.00" routeLength="440.26" waitingTime="0.00" waitingCount="0" stopTime="0.00" timeLoss="10.85" rerouteNo="0" devices="tripinfo_veh252" vType="passenger" speedFactor="1.05" vaporized=""/>
    <personinfo id="ped1" depart="5.00" type="DEFAULT_PEDTYPE" speedFactor="0.83" duration="220.00" waitingTime="0.00" timeLoss="21.00" traveltime="220.00">
        <walk depart="5.00" departPos="0.00" arrival="225.00" arrivalPos="37.47" duration="220.00" routeLength="229.68" timeLoss="21.00" maxSpeed="1.15"/>
    </personinfo>
    <tripinfo id="veh5" depart="4.00" departLane="48736621#0_1" departPos="11.34" departSpeed="0.00" departDelay="0.45" arrival="225.00" arrivalLane="48736640#0_1" arrivalPos="55.87" arrivalSpeed="13.73" duration="221.00" routeLength="1537.62" waitingTime="76.00" waitingCount="2" stopTime="0.00" timeLoss="110.21" rerouteNo="0" devices="tripinfo_veh5" vType="delivery" speedFactor="1.05" vaporized=""/>
    <tripinfo id="veh281" depart="200.00" departLane="48736622#1_1" departPos="0.19" departSpeed="0.00" departDelay="0.49" arrival="225.00" arrivalLane="48736611#1_1" arrivalPos="4.90" arrivalSpeed="9.33" duration="25.00" routeLength="207.89" waitingTime="0.00" waitingCount="0" stopTime="0.00" timeLoss="8.21" rerouteNo="0" devices="tripinfo_veh281" vType="passenger" speedFactor="1.26" vaporized=""/>
    <tripinfo id="veh46" depart="33.00" departLane="-43546064#2_1" departPos="80.64" departSpeed="0.00" departDelay="0.34" arrival="227.00" arrivalLane="-945794111_1" arrivalPos="62.47" arrivalSpeed="5.15" duration="194.00" routeLength="1580.61" waitingTime="0.00" waitingCount="0" stopTime="0.00" timeLoss="60.44" rerouteNo="0" devices="tripinfo_veh46" vType="motorcycle" speedFactor="0.90" vaporized=""/>
    <tripinfo id="veh50" depart="36.00" departLane="-48778486_1" departPos="13.08" departSpeed="0.00" departDelay="0.50" arrival="227.00" arrivalLane="43546688#1_1" arrivalPos="71.52" arrivalSpeed="13.34" duration="191.00" routeLength="1805.97" waitingTime="20.00" waitingCount="2" stopTime="0.00" timeLoss="54.62" rerouteNo="0" devices="tripinfo_veh50" vType="passenger" speedFactor="1.00" vaporized=""/>
    <tripinfo id="veh194" depart="138.00" departLane="40299739#0_1" departPos="76.22" departSpeed="0.00" departDelay="0.26" arrival="227.00" arrivalLane="E23_1" arrivalPos="246.50" arrivalSpeed="11.95" duration="89.00" routeLength="934.42" waitingTime="0.00" waitingCount="0" stopTime="0.00" timeLoss="11.09" rerouteNo="0" devices="tripinfo_veh194" vType="passenger" speedFactor="0.89" vaporized=""/>
    <tripinfo id="veh158" depart="113.00" departLane="176279225#4_1" departPos="47.70" departSpeed="0.00" departDelay="0.82" arrival="228.00" arrivalLane="273835688_1" arrivalPos="176.77" arrivalSpeed="12.59" duration="115.00" routeLength="839.72" waitingTime="35.00" waitingCount="1" stopTime="0.00" timeLoss="52.07" rerouteNo="0" devices="tripinfo_veh158" vType="passenger" speedFactor="1.00" vaporized=""/>
    <tripinfo id="veh10" depart="8.00" departLane="E12_1" departPos="94.45" departSpeed="0.00" departDelay="0.90" arrival="229.00" arrivalLane="48778427_1" arrivalPos="390.71" arrivalSpeed="14.17" duration="221.00" routeLength="2730.32" waitingTime="0.00" waitingCount="0" stopTime="0.00" timeLoss="22.38" rerouteNo="0" devices="tripinfo_veh10" vType="passenger" speedFactor="1.04" vaporized=""/>
    <tripinfo id="veh67" depart="48.00" departLane="-40236228#1_1" departPos="2.45" departSpeed="0.00" departDelay="0.43" arrival="229.00" arrivalLane="-647262856_1" arrivalPos="411.78" arrivalSpeed="14.73" duration="181.00" routeLength="2269.05" waitingTime="0.00" waitingCount="0" stopTime="0.00" timeLoss="24.67" rerouteNo="0" devices="tripinfo_veh67" vType="passenger" speedFactor="1.08" vaporized=""/>
    <tripinfo id="veh135" depart="96.00" departLane="-945793486#1_0" departPos="41.28" departSpeed="0.00" departDelay="0.15" arrival="229.00" arrivalLane="647762524_1" arrivalPos="48.75" arrivalSpeed="13.14" duration="133.00" routeLength="1216.19" waitingTime="0.00" waitingCount="0" stopTime="0.00" timeLoss="31.55" rerouteNo="0" devices="tripinfo_veh135" vType="passenger" speedFactor="0.97" vaporized=""/>
    <tripinfo id="veh153" depart="109.00" departLane="-43573547#2_1" departPos="18.13" departSpeed="0.00" departDelay="0.37" arrival="229.00" arrivalLane="-1250915721#0_1" arrivalPos="14.93" arrivalSpeed="5.92" duration="120.00" routeLength="1100.36" waitingTime="6.00" waitingCount="2" stopTime="0.00" timeLoss="32.33" rerouteNo="0" devices="tripinfo_veh153" vType="passenger" speedFactor="1.18" vaporized=""/>
    <tripinfo id="veh92" depart="66.00" departLane="48778520_1" departPos="25.65" departSpeed="0.00" departDelay="0.68" arrival="230.00" arrivalLane="-43546460#8_1" arrivalPos="96.42" arrivalSpeed="11.31" duration="164.00" routeLength="1740.52" waitingTime="0.00" waitingCount="0" stopTime="0.00" timeLoss="16.10" rerouteNo="0" devices="tripinfo_veh92" vType="passenger" speedFactor="0.87" vaporized=""/>
    <tripinfo id="veh220" depart="157.00" departLane="-48736624#3_1" departPos="3.04" departSpeed="0.00" departDelay="0.80" arrival="230.00" arrivalLane="-143207982#1_1" arrivalPos="40.37" arrivalSpeed="12.03" duration="73.00" routeLength="669.79" waitingTime="0.00" waitingCount="0" stopTime="0.00" timeLoss="17.06" rerouteNo="0" devices="tripinfo_veh220" vType="delivery" speedFactor="0.93" vaporized=""/>
    <tripinfo id="veh108" depart="77.00" departLane="647755347#1_1" departPos="12.29" departSpeed="0.00" departDelay="0.32" arrival="233.00" arrivalLane="-48736658_1" arrivalPos="59.75" arrivalSpeed="13.96" duration="156.00" routeLength="1445.12" waitingTime="20.00" waitingCount="1" stopTime="0.00" timeLoss="50.21" rerouteNo="0" devices="tripinfo_veh108" vType="passenger" speedFactor="1.03" vaporized=""/>
    <tripinfo id="veh42" depart="30.00" departLane="48736638#0_1" departPos="35.90" departSpeed="0.00" departDelay="0.18" arrival="234.00" arrivalLane="353939570#3_1" arrivalPos="276.18" arrivalSpeed="16.11" duration="204.00" routeLength="1873.56" waitingTime="56.00" waitingCount="2" stopTime="0.00" timeLoss="86.38" rerouteNo="0" devices="tripinfo_veh42" vType="passenger" speedFactor="1.17" vaporized=""/>
    <tripinfo id="veh58" depart="42.00" departLane="-48736620#6_2" departPos="0.16" departSpeed="0.00" departDelay="0.82" arrival="234.00" arrivalLane="-174818015_0" arrivalPos="287.49" arrivalSpeed="5.05" duration="192.00" routeLength="1277.35" waitingTime="10.00" waitingCount="1" stopTime="0.00" timeLoss="43.84" rerouteNo="0" devices="tripinfo_veh58" vType="delivery" speedFactor="0.96" vaporized=""/>
    <personinfo id="ped26" depart="130.00" type="DEFAULT_PEDTYPE" speedFactor="1.07" duration="110.00" waitingTime="0.00" timeLoss="11.74" traveltime="110.00">
        <walk depart="130.00" departPos="0.00" arrival="240.00" arrivalPos="54.33" duration="110.00" routeLength="145.41" timeLoss="11.74" maxSpeed="1.48"/>
    </personinfo>
    <tripinfo id="veh66" depart="47.00" departLane="-43546648#5_1" departPos="7.91" departSpeed="0.00" departDelay="0.14" arrival="240.00" arrivalLane="48778494#1_1" arrivalPos="15.92" arrivalSpeed="13.49" duration="193.00" routeLength="1655.23" waitingTime="28.00" waitingCount="2" stopTime="0.00" timeLoss="71.06" rerouteNo="0" devices="tripinfo_veh66" vType="passenger" speedFactor="1.02" vaporized=""/>
    <personinfo id="ped5" depart="25.00" type="DEFAULT_PEDTYPE" speedFactor="1.00" duration="216.00" waitingTime="0.00" timeLoss="23.66" traveltime="216.00">
        <walk depart="25.00" departPos="0.00" arrival="241.00" arrivalPos="43.19" duration="216.00" routeLength="268.29" timeLoss="23.66" maxSpeed="1.39"/>
    </personinfo>
    <tripinfo id="veh114" depart="81.00" departLane="383582518#0_0" departPos="17.78" departSpeed="0.00" departDelay="0.06" arrival="241.00" arrivalLane="-1136284448_1" arrivalPos="34.50" arrivalSpeed="7.54" duration="160.00" routeLength="1054.20" waitingTime="4.00" waitingCount="1" stopTime="0.00" timeLoss="72.81" rerouteNo="0" devices="tripinfo_veh114" vType="passenger" speedFactor="1.02" vaporized=""/>
    <tripinfo id="veh262" depart="187.00" departLane="383582497_0" departPos="4.14" departSpeed="0.00" departDelay="0.98" arrival="241.00" arrivalLane="492965073#9_2" arrivalPos="76.43" arrivalSpeed="12.77" duration="54.00" routeLength="213.88" waitingTime="17.00" waitingCount="2" stopTime="0.00" timeLoss="28.99" rerouteNo="0" devices="tripinfo_veh262" vType="emergency" speedFactor="1.00" vaporized=""/>
    <tripinfo id="veh219" depart="156.00" departLane="222608880#1_1" departPos="46.05" departSpeed="0.00" departDelay="0.51" arrival="243.00" arrivalLane="-43547017#2_1" arrivalPos="56.55" arrivalSpeed="12.74" duration="87.00" routeLength="776.08" waitingTime="5.00" waitingCount="1" stopTime="0.00" timeLoss="23.76" rerouteNo="0" devices="tripinfo_veh219" vType="motorcycle" speedFactor="0.93" vaporized=""/>