<?xml version="1.0" encoding="UTF-8"?>

<!-- generated on 2025-06-12 10:53:43 by Eclipse SUMO sumo Version 1.22.0
<sumoConfiguration xmlns:xsi="http://www.w3.org/2001/XMLSchema-instance" xsi:noNamespaceSchemaLocation="http://sumo.dlr.de/xsd/sumoConfiguration.xsd">

    <input>
        <net-file value="E:/licenta/oras-mediu/2025-06-05-11-45-23/osm.net.xml"/>
        <route-files value="E:/licenta/oras-mediu/2025-06-05-11-45-23/full.rou.xml,E:/licenta/oras-mediu/2025-06-05-11-45-23/ ped.rou.xml,E:/licenta/oras-mediu/2025-06-05-11-45-23/ truck.rou.xml"/>
        <additional-files value="E:/licenta/oras-mediu/2025-06-05-11-45-23/osm.poly.xml,E:/licenta/oras-mediu/2025-06-05-11-45-23/ vtypes.xml"/>
    </input>

    <output>
        <summary-output value="E:/licenta/oras-mediu/2025-06-05-11-45-23/summary.xml"/>
        <tripinfo-output value="E:/licenta/oras-mediu/2025-06-05-11-45-23/tripinfo.xml"/>
    </output>

    <processing>
        <ignore-route-errors value="true"/>
        <tls.actuated.jam-threshold value="30"/>
    </processing>

    <routing>
        <device.rerouting.adaptation-steps value="18"/>
        <device.rerouting.adaptation-interval value="10"/>
    </routing>

    <report>
        <verbose value="true"/>
        <duration-log.statistics value="true"/>
        <no-step-log value="true"/>
    </report>

    <traci_server>
        <remote-port value="61558"/>
    </traci_server>

    <gui_only>
        <gui-settings-file value="E:/licenta/oras-mediu/2025-06-05-11-45-23/osm.view.xml"/>
    </gui_only>

</sumoConfiguration>
-->

<tripinfos xmlns:xsi="http://www.w3.org/2001/XMLSchema-instance" xsi:noNamespaceSchemaLocation="http://sumo.dlr.de/xsd/tripinfo_file.xsd">
    <tripinfo id="veh32" depart="17.00" departLane="43544138#6_1" departPos="2.62" departSpeed="0.00" departDelay="0.68" arrival="73.00" arrivalLane="-43544138#3_1" arrivalPos="46.01" arrivalSpeed="13.76" duration="56.00" routeLength="472.30" waitingTime="0.00" waitingCount="0" stopTime="0.00" timeLoss="19.99" rerouteNo="0" devices="tripinfo_veh32" vType="passenger" speedFactor="1.03" vaporized=""/>
    <tripinfo id="veh17" depart="9.00" departLane="-995052182_0" departPos="63.35" departSpeed="0.00" departDelay="0.33" arrival="83.00" arrivalLane="-40295499#3_1" arrivalPos="94.77" arrivalSpeed="11.17" duration="74.00" routeLength="367.33" waitingTime="0.00" waitingCount="0" stopTime="0.00" timeLoss="11.05" rerouteNo="0" devices="tripinfo_veh17" vType="passenger" speedFactor="0.89" vaporized=""/>
    <personinfo id="ped3" depart="15.00" type="DEFAULT_PEDTYPE" speedFactor="1.08" duration="92.00" waitingTime="0.00" timeLoss="10.99" traveltime="92.00">
        <walk depart="15.00" departPos="0.00" arrival="107.00" arrivalPos="39.41" duration="92.00" routeLength="121.95" timeLoss="10.99" maxSpeed="1.51"/>
    </personinfo>
    <tripinfo id="veh119" depart="61.00" departLane="859732802#0_0" departPos="0.80" departSpeed="0.00" departDelay="0.31" arrival="117.00" arrivalLane="-222609002#2_1" arrivalPos="15.40" arrivalSpeed="10.21" duration="56.00" routeLength="497.44" waitingTime="0.00" waitingCount="0" stopTime="0.00" timeLoss="11.27" rerouteNo="0" devices="tripinfo_veh119" vType="passenger" speedFactor="1.21" vaporized=""/>
    <tripinfo id="veh37" depart="19.00" departLane="40295499#0_1" departPos="17.67" departSpeed="0.00" departDelay="0.13" arrival="127.00" arrivalLane="994066570_0" arrivalPos="168.94" arrivalSpeed="4.59" duration="108.00" routeLength="1031.10" waitingTime="0.00" waitingCount="0" stopTime="0.00" timeLoss="9.67" rerouteNo="0" devices="tripinfo_veh37" vType="passenger" speedFactor="0.95" vaporized=""/>
    <tripinfo id="veh96" depart="49.00" departLane="40314583#0_1" departPos="40.20" departSpeed="0.00" departDelay="0.04" arrival="129.00" arrivalLane="-40314583#0_1" arrivalPos="169.56" arrivalSpeed="14.70" duration="80.00" routeLength="735.52" waitingTime="2.00" waitingCount="1" stopTime="0.00" timeLoss="30.26" rerouteNo="0" devices="tripinfo_veh96" vType="passenger" speedFactor="1.13" vaporized=""/>
    <personinfo id="ped13" depart="65.00" type="DEFAULT_PEDTYPE" speedFactor="1.03" duration="67.00" waitingTime="0.00" timeLoss="7.51" traveltime="67.00">
        <walk depart="65.00" departPos="0.00" arrival="132.00" arrivalPos="41.72" duration="67.00" routeLength="84.99" timeLoss="7.51" maxSpeed="1.43"/>
    </personinfo>
    <tripinfo id="veh79" depart="41.00" departLane="647770574_1" departPos="98.70" departSpeed="0.00" departDelay="0.71" arrival="132.00" arrivalLane="-43546648#4_1" arrivalPos="81.62" arrivalSpeed="13.67" duration="91.00" routeLength="762.22" waitingTime="5.00" waitingCount="1" stopTime="0.00" timeLoss="28.94" rerouteNo="0" devices="tripinfo_veh79" vType="emergency" speedFactor="1.00" vaporized=""/>
    <tripinfo id="veh22" depart="12.00" departLane="43546570#1_1" departPos="73.95" departSpeed="0.00" departDelay="0.78" arrival="134.00" arrivalLane="1135854210_1" arrivalPos="13.11" arrivalSpeed="4.41" duration="122.00" routeLength="1228.70" waitingTime="0.00" waitingCount="0" stopTime="0.00" timeLoss="16.63" rerouteNo="0" devices="tripinfo_veh22" vType="passenger" speedFactor="0.89" vaporized=""/>
    <tripinfo id="veh33" depart="17.00" departLane="-40265775#0_1" departPos="13.70" departSpeed="0.00" departDelay="0.17" arrival="135.00" arrivalLane="-250295383#5_1" arrivalPos="53.03" arrivalSpeed="14.12" duration="118.00" routeLength="1307.43" waitingTime="4.00" waitingCount="1" stopTime="0.00" timeLoss="26.92" rerouteNo="0" devices="tripinfo_veh33" vType="passenger" speedFactor="1.07" vaporized=""/>
    <tripinfo id="veh25" depart="13.00" departLane="48736622#1_1" departPos="0.16" departSpeed="0.00" departDelay="0.25" arrival="141.00" arrivalLane="1136301814#0_1" arrivalPos="40.78" arrivalSpeed="13.10" duration="128.00" routeLength="1286.94" waitingTime="6.00" waitingCount="1" stopTime="0.00" timeLoss="31.89" rerouteNo="0" devices="tripinfo_veh25" vType="passenger" speedFactor="0.99" vaporized=""/>
    <tripinfo id="veh153" depart="79.00" departLane="-48778510#1_1" departPos="27.03" departSpeed="0.00" departDelay="0.97" arrival="141.00" arrivalLane="-43544184#4_1" arrivalPos="17.47" arrivalSpeed="9.91" duration="62.00" routeLength="628.37" waitingTime="0.00" waitingCount="0" stopTime="0.00" timeLoss="13.36" rerouteNo="0" devices="tripinfo_veh153" vType="delivery" speedFactor="0.99" vaporized=""/>
    <tripinfo id="veh41" depart="21.00" departLane="174818022#1_0" departPos="28.18" departSpeed="0.00" departDelay="0.09" arrival="144.00" arrivalLane="48778446#2_1" arrivalPos="11.20" arrivalSpeed="11.79" duration="123.00" routeLength="1031.74" waitingTime="10.00" waitingCount="1" stopTime="0.00" timeLoss="28.79" rerouteNo="0" devices="tripinfo_veh41" vType="passenger" speedFactor="1.05" vaporized=""/>
    <tripinfo id="veh86" depart="44.00" departLane="492965073#10_1" departPos="53.57" departSpeed="0.00" departDelay="0.14" arrival="144.00" arrivalLane="43546648#2_1" arrivalPos="79.89" arrivalSpeed="13.29" duration="100.00" routeLength="1162.64" waitingTime="0.00" waitingCount="0" stopTime="0.00" timeLoss="12.43" rerouteNo="0" devices="tripinfo_veh86" vType="passenger" speedFactor="0.98" vaporized=""/>
    <tripinfo id="veh188" depart="96.00" departLane="48778495#0_1" departPos="77.52" departSpeed="0.00" departDelay="0.12" arrival="145.00" arrivalLane="40330557#3_1" arrivalPos="31.45" arrivalSpeed="13.89" duration="49.00" routeLength="502.87" waitingTime="0.00" waitingCount="0" stopTime="0.00" timeLoss="9.73" rerouteNo="0" devices="tripinfo_veh188" vType="delivery" speedFactor="1.08" vaporized=""/>
    <tripinfo id="veh12" depart="7.00" departLane="383582497_0" departPos="1.43" departSpeed="0.00" departDelay="0.88" arrival="148.00" arrivalLane="-40299241#0_1" arrivalPos="57.32" arrivalSpeed="12.16" duration="141.00" routeLength="1465.90" waitingTime="0.00" waitingCount="0" stopTime="0.00" timeLoss="19.70" rerouteNo="0" devices="tripinfo_veh12" vType="delivery" speedFactor="0.97" vaporized=""/>
    <tripinfo id="veh35" depart="18.00" departLane="43573547#3_1" departPos="10.64" departSpeed="0.00" departDelay="0.15" arrival="148.00" arrivalLane="40304754#0_1" arrivalPos="327.38" arrivalSpeed="12.71" duration="130.00" routeLength="1544.61" waitingTime="0.00" waitingCount="0" stopTime="0.00" timeLoss="16.69" rerouteNo="0" devices="tripinfo_veh35" vType="emergency" speedFactor="1.00" vaporized=""/>
    <tripinfo id="veh273" depart="140.00" departLane="48778461#1_1" departPos="1.64" departSpeed="0.00" departDelay="0.77" arrival="154.00" arrivalLane="-1136301818_1" arrivalPos="34.45" arrivalSpeed="11.67" duration="14.00" routeLength="89.15" waitingTime="0.00" waitingCount="0" stopTime="0.00" timeLoss="4.94" rerouteNo="0" devices="tripinfo_veh273" vType="passenger" speedFactor="0.90" vaporized=""/>
    <tripinfo id="veh0" depart="0.00" departLane="-48778510#0_1" departPos="6.41" departSpeed="0.00" departDelay="0.00" arrival="156.00" arrivalLane="48778449#0_1" arrivalPos="44.07" arrivalSpeed="12.51" duration="156.00" routeLength="1733.98" waitingTime="0.00" waitingCount="0" stopTime="0.00" timeLoss="23.22" rerouteNo="0" devices="tripinfo_veh0" vType="motorcycle" speedFactor="0.98" vaporized=""/>
    <tripinfo id="veh64" depart="33.00" departLane="-984521613_0" departPos="14.08" departSpeed="0.00" departDelay="0.36" arrival="157.00" arrivalLane="40330575#1_1" arrivalPos="3.63" arrivalSpeed="14.85" duration="124.00" routeLength="1479.75" waitingTime="0.00" waitingCount="0" stopTime="0.00" timeLoss="18.84" rerouteNo="0" devices="tripinfo_veh64" vType="passenger" speedFactor="1.08" vaporized=""/>
    <tripinfo id="veh122" depart="63.00" departLane="-40330575#0_1" departPos="14.76" departSpeed="0.00" departDelay="0.78" arrival="162.00" arrivalLane="1136117604_1" arrivalPos="21.30" arrivalSpeed="13.30" duration="99.00" routeLength="377.64" waitingTime="58.00" waitingCount="1" stopTime="0.00" timeLoss="69.39" rerouteNo="0" devices="tripinfo_veh122" vType="motorcycle" speedFactor="1.04" vaporized=""/>
    <tripinfo id="veh178" depart="91.00" departLane="43546053#0_1" departPos="289.88" departSpeed="0.00" departDelay="0.22" arrival="164.00" arrivalLane="43547256#2_1" arrivalPos="217.55" arrivalSpeed="11.11" duration="73.00" routeLength="761.48" waitingTime="0.00" waitingCount="0" stopTime="0.00" timeLoss="15.17" rerouteNo="0" devices="tripinfo_veh178" vType="motorcycle" speedFactor="1.00" vaporized=""/>
    <personinfo id="ped10" depart="50.00" type="DEFAULT_PEDTYPE" speedFactor="1.15" duration="116.00" waitingTime="0.00" timeLoss="12.25" traveltime="116.00">
        <walk depart="50.00" departPos="0.00" arrival="166.00" arrivalPos="58.41" duration="116.00" routeLength="166.18" timeLoss="12.25" maxSpeed="1.60"/>
    </personinfo>
    <tripinfo id="veh205" depart="105.00" departLane="1250915723#0_1" departPos="7.83" departSpeed="0.00" departDelay="0.45" arrival="166.00" arrivalLane="945793491#1_1" arrivalPos="67.96" arrivalSpeed="4.22" duration="61.00" routeLength="231.02" waitingTime="0.00" waitingCount="0" stopTime="0.00" timeLoss="8.00" rerouteNo="0" devices="tripinfo_veh205" vType="passenger" speedFactor="0.80" vaporized=""/>
    <tripinfo id="veh80" depart="41.00" departLane="48778443#1_1" departPos="27.19" departSpeed="0.00" departDelay="0.20" arrival="169.00" arrivalLane="40304754#5_1" arrivalPos="153.80" arrivalSpeed="6.94" duration="128.00" routeLength="1164.13" waitingTime="0.00" waitingCount="0" stopTime="0.00" timeLoss="36.82" rerouteNo="0" devices="tripinfo_veh80" vType="delivery" speedFactor="0.98" vaporized=""/>
    <tripinfo id="veh266" depart="136.00" departLane="383582514_1" departPos="159.94" departSpeed="0.00" departDelay="0.34" arrival="169.00" arrivalLane="43544179#2_1" arrivalPos="111.49" arrivalSpeed="13.27" duration="33.00" routeLength="352.62" waitingTime="0.00" waitingCount="0" stopTime="0.00" timeLoss="3.77" rerouteNo="0" devices="tripinfo_veh266" vType="passenger" speedFactor="0.96" vaporized=""/>
    <tripinfo id="veh42" depart="22.00" departLane="-48736647#0_1" departPos="21.71" departSpeed="0.00" departDelay="0.58" arrival="170.00" arrivalLane="48736638#2_1" arrivalPos="27.21" arrivalSpeed="13.80" duration="148.00" routeLength="1633.53" waitingTime="0.00" waitingCount="0" stopTime="0.00" timeLoss="25.41" rerouteNo="0" devices="tripinfo_veh42" vType="motorcycle" speedFactor="1.00" vaporized=""/>
    <tripinfo id="veh249" depart="127.00" departLane="492965073#9_1" departPos="57.69" departSpeed="0.00" departDelay="0.01" arrival="173.00" arrivalLane="48797765#1_1" arrivalPos="28.98" arrivalSpeed="13.92" duration="46.00" routeLength="457.42" waitingTime="0.00" waitingCount="0" stopTime="0.00" timeLoss="10.74" rerouteNo="0" devices="tripinfo_veh249" vType="passenger" speedFactor="1.02" vaporized=""/>
    <tripinfo id="veh181" depart="93.00" departLane="383582513_0" departPos="49.89" departSpeed="0.00" departDelay="0.69" arrival="175.00" arrivalLane="40315648#0_1" arrivalPos="94.16" arrivalSpeed="13.91" duration="82.00" routeLength="917.43" waitingTime="0.00" waitingCount="0" stopTime="0.00" timeLoss="16.44" rerouteNo="0" devices="tripinfo_veh181" vType="passenger" speedFactor="1.06" vaporized=""/>
    <tripinfo id="veh70" depart="36.00" departLane="40304754#2_1" departPos="80.36" departSpeed="0.00" departDelay="0.30" arrival="176.00" arrivalLane="-43544197#6_1" arrivalPos="40.81" arrivalSpeed="11.06" duration="140.00" routeLength="1368.13" waitingTime="0.00" waitingCount="0" stopTime="0.00" timeLoss="18.30" rerouteNo="0" devices="tripinfo_veh70" vType="passenger" speedFactor="0.83" vaporized=""/>
    <tripinfo id="veh89" depart="46.00" departLane="-671642291_1" departPos="3.50" departSpeed="0.00" departDelay="0.61" arrival="176.00" arrivalLane="43547256#2_1" arrivalPos="217.55" arrivalSpeed="17.05" duration="130.00" routeLength="1678.32" waitingTime="0.00" waitingCount="0" stopTime="0.00" timeLoss="31.14" rerouteNo="0" devices="tripinfo_veh89" vType="passenger" speedFactor="1.25" vaporized=""/>
    <tripinfo id="veh59" depart="31.00" departLane="40269009#0_1" departPos="10.49" departSpeed="0.00" departDelay="0.91" arrival="177.00" arrivalLane="-1135772296#1_0" arrivalPos="28.75" arrivalSpeed="5.03" duration="146.00" routeLength="1057.09" waitingTime="11.00" waitingCount="1" stopTime="0.00" timeLoss="43.82" rerouteNo="0" devices="tripinfo_veh59" vType="passenger" speedFactor="0.92" vaporized=""/>
    <tripinfo id="veh39" depart="20.00" departLane="671642329#0_1" departPos="163.79" departSpeed="0.00" departDelay="0.11" arrival="180.00" arrivalLane="48736624#0_1" arrivalPos="117.89" arrivalSpeed="13.52" duration="160.00" routeLength="1966.20" waitingTime="0.00" waitingCount="0" stopTime="0.00" timeLoss="22.76" rerouteNo="0" devices="tripinfo_veh39" vType="passenger" speedFactor="1.06" vaporized=""/>
    <tripinfo id="veh43" depart="22.00" departLane="-33909936#2_1" departPos="43.33" departSpeed="0.00" departDelay="0.07" arrival="180.00" arrivalLane="222605084#1_1" arrivalPos="0.36" arrivalSpeed="5.81" duration="158.00" routeLength="897.05" waitingTime="0.00" waitingCount="0" stopTime="0.00" timeLoss="10.56" rerouteNo="0" devices="tripinfo_veh43" vType="bicycle" speedFactor="1.10" vaporized=""/>
    <tripinfo id="veh102" depart="53.00" departLane="-43546789#3_1" departPos="5.34" departSpeed="0.00" departDelay="0.98" arrival="183.00" arrivalLane="48778505#2_1" arrivalPos="58.26" arrivalSpeed="13.97" duration="130.00" routeLength="1370.76" waitingTime="0.00" waitingCount="0" stopTime="0.00" timeLoss="27.64" rerouteNo="0" devices="tripinfo_veh102" vType="passenger" speedFactor="1.02" vaporized=""/>
    <tripinfo id="veh215" depart="110.00" departLane="48778456#0_1" departPos="1.73" departSpeed="0.00" departDelay="0.35" arrival="184.00" arrivalLane="492965073#10_2" arrivalPos="59.45" arrivalSpeed="12.97" duration="74.00" routeLength="687.47" waitingTime="6.00" waitingCount="1" stopTime="0.00" timeLoss="19.50" rerouteNo="0" devices="tripinfo_veh215" vType="passenger" speedFactor="0.94" vaporized=""/>
    <tripinfo id="veh76" depart="39.00" departLane="-40295499#0_1" departPos="35.06" departSpeed="0.00" departDelay="0.24" arrival="186.00" arrivalLane="143207982#5_1" arrivalPos="37.53" arrivalSpeed="7.79" duration="147.00" routeLength="1443.86" waitingTime="28.00" waitingCount="2" stopTime="0.00" timeLoss="54.29" rerouteNo="0" devices="tripinfo_veh76" vType="passenger" speedFactor="1.14" vaporized=""/>
    <tripinfo id="veh27" depart="14.00" departLane="40269009#0_1" departPos="15.68" departSpeed="0.00" departDelay="0.23" arrival="187.00" arrivalLane="48778498#2_1" arrivalPos="98.03" arrivalSpeed="13.56" duration="173.00" routeLength="1519.01" waitingTime="22.00" waitingCount="2" stopTime="0.00" timeLoss="53.95" rerouteNo="0" devices="tripinfo_veh27" vType="motorcycle" speedFactor="1.02" vaporized=""/>
    <tripinfo id="veh170" depart="87.00" departLane="43546793_1" departPos="114.86" departSpeed="0.00" departDelay="0.30" arrival="187.00" arrivalLane="-250295383#6_1" arrivalPos="25.71" arrivalSpeed="11.45" duration="100.00" routeLength="1075.31" waitingTime="2.00" waitingCount="1" stopTime="0.00" timeLoss="22.70" rerouteNo="0" devices="tripinfo_veh170" vType="delivery" speedFactor="1.03" vaporized=""/>
    <tripinfo id="veh208" depart="107.00" departLane="43545645#2_1" departPos="224.00" departSpeed="0.00" departDelay="0.92" arrival="187.00" arrivalLane="647998060#0_1" arrivalPos="61.50" arrivalSpeed="13.56" duration="80.00" routeLength="870.01" waitingTime="0.00" waitingCount="0" stopTime="0.00" timeLoss="15.40" rerouteNo="0" devices="tripinfo_veh208" vType="passenger" speedFactor="1.01" vaporized=""/>
    <tripinfo id="veh13" depart="7.00" departLane="-671642321_1" departPos="44.33" departSpeed="0.00" departDelay="0.37" arrival="189.00" arrivalLane="-256684296_0" arrivalPos="80.07" arrivalSpeed="2.60" duration="182.00" routeLength="1713.19" waitingTime="1.00" waitingCount="1" stopTime="0.00" timeLoss="27.35" rerouteNo="0" devices="tripinfo_veh13" vType="emergency" speedFactor="1.00" vaporized=""/>
    <tripinfo id="veh103" depart="53.00" departLane="-647762524_1" departPos="14.39" departSpeed="0.00" departDelay="0.47" arrival="191.00" arrivalLane="40236203#0_1" arrivalPos="83.35" arrivalSpeed="12.21" duration="138.00" routeLength="1058.99" waitingTime="10.00" waitingCount="1" stopTime="0.00" timeLoss="42.94" rerouteNo="0" devices="tripinfo_veh103" vType="passenger" speedFactor="0.89" vaporized=""/>
    <tripinfo id="veh130" depart="67.00" departLane="33913538#0_1" departPos="56.91" departSpeed="0.00" departDelay="0.70" arrival="193.00" arrivalLane="-422283114_0" arrivalPos="185.51" arrivalSpeed="5.38" duration="126.00" routeLength="1238.68" waitingTime="0.00" waitingCount="0" stopTime="0.00" timeLoss="14.63" rerouteNo="0" devices="tripinfo_veh130" vType="delivery" speedFactor="1.00" vaporized=""/>
    <tripinfo id="veh101" depart="52.00" departLane="-43544184#2_1" departPos="24.10" departSpeed="0.00" departDelay="0.49" arrival="194.00" arrivalLane="1136283381_1" arrivalPos="22.82" arrivalSpeed="8.40" duration="142.00" routeLength="1616.70" waitingTime="0.00" waitingCount="0" stopTime="0.00" timeLoss="22.69" rerouteNo="0" devices="tripinfo_veh101" vType="passenger" speedFactor="1.03" vaporized=""/>
    <personinfo id="ped22" depart="110.00" type="DEFAULT_PEDTYPE" speedFactor="1.20" duration="85.00" waitingTime="0.00" timeLoss="8.62" traveltime="85.00">
        <walk depart="110.00" departPos="0.00" arrival="195.00" arrivalPos="62.09" duration="85.00" routeLength="127.07" timeLoss="8.62" maxSpeed="1.66"/>
    </personinfo>
    <tripinfo id="veh127" depart="65.00" departLane="1054663937_1" departPos="15.43" departSpeed="0.00" departDelay="0.23" arrival="195.00" arrivalLane="-40236232#0_1" arrivalPos="39.66" arrivalSpeed="14.13" duration="130.00" routeLength="1522.67" waitingTime="3.00" waitingCount="1" stopTime="0.00" timeLoss="31.36" rerouteNo="0" devices="tripinfo_veh127" vType="passenger" speedFactor="1.18" vaporized=""/>
    <tripinfo id="veh204" depart="105.00" departLane="48778518_1" departPos="14.20" departSpeed="0.00" departDelay="0.96" arrival="195.00" arrivalLane="354259933#2_1" arrivalPos="84.82" arrivalSpeed="12.88" duration="90.00" routeLength="1011.45" waitingTime="0.00" waitingCount="0" stopTime="0.00" timeLoss="11.88" rerouteNo="0" devices="tripinfo_veh204" vType="passenger" speedFactor="0.98" vaporized=""/>
    <tripinfo id="veh4" depart="3.00" departLane="-48736646#0_1" departPos="22.00" departSpeed="0.00" departDelay="0.96" arrival="197.00" arrivalLane="43546039#3_1" arrivalPos="47.87" arrivalSpeed="13.83" duration="194.00" routeLength="2237.67" waitingTime="1.00" waitingCount="1" stopTime="0.00" timeLoss="30.95" rerouteNo="0" devices="tripinfo_veh4" vType="passenger" speedFactor="1.02" vaporized=""/>
    <tripinfo id="veh66" depart="34.00" departLane="-48778525#2_1" departPos="27.47" departSpeed="0.00" departDelay="0.34" arrival="197.00" arrivalLane="-48778479_1" arrivalPos="432.92" arrivalSpeed="13.09" duration="163.00" routeLength="1873.49" waitingTime="0.00" waitingCount="0" stopTime="0.00" timeLoss="21.40" rerouteNo="0" devices="tripinfo_veh66" vType="passenger" speedFactor="0.98" vaporized=""/>
    <tripinfo id="veh81" depart="42.00" departLane="48778489#3_2" departPos="128.57" departSpeed="0.00" departDelay="0.69" arrival="197.00" arrivalLane="-48736644_1" arrivalPos="142.05" arrivalSpeed="14.19" duration="155.00" routeLength="1826.54" waitingTime="4.00" waitingCount="1" stopTime="0.00" timeLoss="27.48" rerouteNo="0" devices="tripinfo_veh81" vType="passenger" speedFactor="1.06" vaporized=""/>
    <tripinfo id="veh57" depart="30.00" departLane="E41_1" departPos="86.97" departSpeed="0.00" departDelay="0.93" arrival="198.00" arrivalLane="-40330583#0_0" arrivalPos="91.11" arrivalSpeed="26.65" duration="168.00" routeLength="2454.37" waitingTime="0.00" waitingCount="0" stopTime="0.00" timeLoss="17.45" rerouteNo="0" devices="tripinfo_veh57" vType="passenger" speedFactor="1.12" vaporized=""/>
    <tripinfo id="veh116" depart="60.00" departLane="945793485#0_1" departPos="18.88" departSpeed="0.00" departDelay="0.84" arrival="199.00" arrivalLane="222609002#0_1" arrivalPos="115.28" arrivalSpeed="15.25" duration="139.00" routeLength="1512.78" waitingTime="0.00" waitingCount="0" stopTime="0.00" timeLoss="30.86" rerouteNo="0" devices="tripinfo_veh116" vType="passenger" speedFactor="1.11" vaporized=""/>
    <tripinfo id="veh26" depart="14.00" departLane="48778461#0_1" departPos="33.01" departSpeed="0.00" departDelay="0.74" arrival="200.00" arrivalLane="43573547#7_1" arrivalPos="83.95" arrivalSpeed="12.16" duration="186.00" routeLength="1945.07" waitingTime="0.00" waitingCount="0" stopTime="0.00" timeLoss="33.51" rerouteNo="0" devices="tripinfo_veh26" vType="passenger" speedFactor="0.97" vaporized=""/>
    <tripinfo id="veh114" depart="59.00" departLane="-43573573#4_1" departPos="11.51" departSpeed="0.00" departDelay="0.86" arrival="201.00" arrivalLane="43545645#1_1" arrivalPos="98.66" arrivalSpeed="12.95" duration="142.00" routeLength="1601.59" waitingTime="0.00" waitingCount="0" stopTime="0.00" timeLoss="23.32" rerouteNo="0" devices="tripinfo_veh114" vType="passenger" speedFactor="1.02" vaporized=""/>
    <tripinfo id="veh73" depart="38.00" departLane="273834906_1" departPos="26.55" departSpeed="0.00" departDelay="0.77" arrival="202.00" arrivalLane="222605084#5_1" arrivalPos="9.96" arrivalSpeed="4.70" duration="164.00" routeLength="1634.72" waitingTime="0.00" waitingCount="0" stopTime="0.00" timeLoss="27.17" rerouteNo="0" devices="tripinfo_veh73" vType="passenger" speedFactor="1.06" vaporized=""/>
    <tripinfo id="veh140" depart="72.00" departLane="48778480#0_1" departPos="170.66" departSpeed="0.00" departDelay="0.60" arrival="202.00" arrivalLane="43548506_1" arrivalPos="109.50" arrivalSpeed="14.13" duration="130.00" routeLength="1355.01" waitingTime="13.00" waitingCount="2" stopTime="0.00" timeLoss="37.56" rerouteNo="0" devices="tripinfo_veh140" vType="passenger" speedFactor="1.06" vaporized=""/>
    <tripinfo id="veh320" depart="164.00" departLane="48778524#0_1" departPos="69.34" departSpeed="0.00" departDelay="0.80" arrival="202.00" arrivalLane="-647998062_1" arrivalPos="87.04" arrivalSpeed="13.36" duration="38.00" routeLength="328.88" waitingTime="0.00" waitingCount="0" stopTime="0.00" timeLoss="11.78" rerouteNo="0" devices="tripinfo_veh320" vType="passenger" speedFactor="1.02" vaporized=""/>
    <tripinfo id="veh109" depart="56.00" departLane="-43546688#2_1" departPos="21.26" departSpeed="0.00" departDelay="0.41" arrival="203.00" arrivalLane="-48778505#0_1" arrivalPos="221.68" arrivalSpeed="10.22" duration="147.00" routeLength="1370.49" waitingTime="0.00" waitingCount="0" stopTime="0.00" timeLoss="24.27" rerouteNo="0" devices="tripinfo_veh109" vType="motorcycle" speedFactor="0.84" vaporized=""/>
    <tripinfo id="veh139" depart="71.00" departLane="-250295384_1" departPos="42.87" departSpeed="0.00" departDelay="0.11" arrival="207.00" arrivalLane="-256555440#1_1" arrivalPos="58.59" arrivalSpeed="11.28" duration="136.00" routeLength="898.98" waitingTime="44.00" waitingCount="1" stopTime="0.00" timeLoss="61.30" rerouteNo="0" devices="tripinfo_veh139" vType="passenger" speedFactor="0.90" vaporized=""/>
    <personinfo id="ped6" depart="30.00" type="DEFAULT_PEDTYPE" speedFactor="1.02" duration="184.00" waitingTime="0.00" timeLoss="18.92" traveltime="184.00">
        <walk depart="30.00" departPos="0.00" arrival="214.00" arrivalPos="15.01" duration="184.00" routeLength="234.00" timeLoss="18.92" maxSpeed="1.42"/>
    </personinfo>
    <tripinfo id="veh34" depart="18.00" departLane="-43546449#2_1" departPos="28.10" departSpeed="0.00" departDelay="0.66" arrival="215.00" arrivalLane="222609002#0_1" arrivalPos="115.28" arrivalSpeed="13.23" duration="197.00" routeLength="1909.39" waitingTime="24.00" waitingCount="1" stopTime="0.00" timeLoss="61.77" rerouteNo="0" devices="tripinfo_veh34" vType="passenger" speedFactor="1.04" vaporized=""/>
    <tripinfo id="veh93" depart="48.00" departLane="40269009#0_1" departPos="9.59" departSpeed="0.00" departDelay="0.57" arrival="215.00" arrivalLane="48778493#2_1" arrivalPos="44.65" arrivalSpeed="12.99" duration="167.00" routeLength="1466.57" waitingTime="12.00" waitingCount="2" stopTime="0.00" timeLoss="45.45" rerouteNo="0" devices="tripinfo_veh93" vType="passenger" speedFactor="0.97" vaporized=""/>
    <tripinfo id="veh165" depart="85.00" departLane="43544588#0_1" departPos="91.53" departSpeed="0.00" departDelay="0.85" arrival="215.00" arrivalLane="-1136284448_1" arrivalPos="34.50" arrivalSpeed="8.15" duration="130.00" routeLength="1418.26" waitingTime="0.00" waitingCount="0" stopTime="0.00" timeLoss="27.86" rerouteNo="0" devices="tripinfo_veh165" vType="passenger" speedFactor="1.07" vaporized=""/>
    <tripinfo id="veh225" depart="115.00" departLane="945793486#0_0" departPos="4.66" departSpeed="0.00" departDelay="0.25" arrival="215.00" arrivalLane="304695350#0_1" arrivalPos="0.20" arrivalSpeed="5.43" duration="100.00" routeLength="816.29" waitingTime="5.00" waitingCount="1" stopTime="0.00" timeLoss="34.17" rerouteNo="0" devices="tripinfo_veh225" vType="passenger" speedFactor="1.05" vaporized=""/>
    <tripinfo id="veh69" depart="36.00" departLane="-48778494#1_1" departPos="6.85" departSpeed="0.00" departDelay="0.81" arrival="216.00" arrivalLane="-43546105#2_1" arrivalPos="10.89" arrivalSpeed="11.57" duration="180.00" routeLength="1725.33" waitingTime="15.00" waitingCount="1" stopTime="0.00" timeLoss="44.17" rerouteNo="0" devices="tripinfo_veh69" vType="motorcycle" speedFactor="0.94" vaporized=""/>
    <tripinfo id="veh50" depart="26.00" departLane="-945793491#0_1" departPos="11.93" departSpeed="0.00" departDelay="0.50" arrival="218.00" arrivalLane="-40236220#0_1" arrivalPos="33.44" arrivalSpeed="13.08" duration="192.00" routeLength="1375.39" waitingTime="31.00" waitingCount="3" stopTime="0.00" timeLoss="69.50" rerouteNo="0" devices="tripinfo_veh50" vType="delivery" speedFactor="0.99" vaporized=""/>
    <tripinfo id="veh19" depart="10.00" departLane="222605087#3_1" departPos="43.56" departSpeed="0.00" departDelay="0.31" arrival="219.00" arrivalLane="-33913538#1_1" arrivalPos="225.54" arrivalSpeed="11.13" duration="209.00" routeLength="1908.31" waitingTime="1.00" waitingCount="1" stopTime="0.00" timeLoss="23.27" rerouteNo="0" devices="tripinfo_veh19" vType="passenger" speedFactor="0.87" vaporized=""/>
    <tripinfo id="veh47" depart="24.00" departLane="996984134_0" departPos="57.65" departSpeed="0.00" departDelay="0.03" arrival="219.00" arrivalLane="43546506#1_1" arrivalPos="108.81" arrivalSpeed="13.46" duration="195.00" routeLength="2410.87" waitingTime="0.00" waitingCount="0" stopTime="0.00" timeLoss="15.33" rerouteNo="0" devices="tripinfo_veh47" vType="passenger" speedFactor="1.00" vaporized=""/>
    <tripinfo id="veh83" depart="43.00" departLane="-43544138#5_1" departPos="18.48" departSpeed="0.00" departDelay="0.67" arrival="221.00" arrivalLane="-43546789#1_1" arrivalPos="47.64" arrivalSpeed="11.87" duration="178.00" routeLength="1840.20" waitingTime="0.00" waitingCount="0" stopTime="0.00" timeLoss="27.35" rerouteNo="0" devices="tripinfo_veh83" vType="passenger" speedFactor="0.89" vaporized=""/>
    <tripinfo id="veh234" depart="120.00" departLane="33909936#2_1" departPos="28.62" departSpeed="0.00" departDelay="0.66" arrival="222.00" arrivalLane="-353939570#7_1" arrivalPos="11.97" arrivalSpeed="14.06" duration="102.00" routeLength="1088.06" waitingTime="7.00" waitingCount="1" stopTime="0.00" timeLoss="21.89" rerouteNo="0" devices="tripinfo_veh234" vType="passenger" speedFactor="1.02" vaporized=""/>
    <personinfo id="ped11" depart="55.00" type="DEFAULT_PEDTYPE" speedFactor="0.97" duration="171.00" waitingTime="0.00" timeLoss="16.77" traveltime="171.00">