<?xml version="1.0" encoding="UTF-8"?>

<!-- generated on 2025-06-12 11:38:09 by Eclipse SUMO sumo Version 1.22.0
<sumoConfiguration xmlns:xsi="http://www.w3.org/2001/XMLSchema-instance" xsi:noNamespaceSchemaLocation="http://sumo.dlr.de/xsd/sumoConfiguration.xsd">

    <input>
        <net-file value="E:/licenta/oras-mediu/2025-06-05-11-45-23/osm.net.xml"/>
        <route-files value="E:/licenta/oras-mediu/2025-06-05-11-45-23/full.rou.xml,E:/licenta/oras-mediu/2025-06-05-11-45-23/ ped.rou.xml,E:/licenta/oras-mediu/2025-06-05-11-45-23/ truck.rou.xml"/>
        <additional-files value="E:/licenta/oras-mediu/2025-06-05-11-45-23/osm.poly.xml,E:/licenta/oras-mediu/2025-06-05-11-45-23/ vtypes.xml"/>
    </input>

    <output>
        <summary-output value="E:/licenta/oras-mediu/2025-06-05-11-45-23/summary.xml"/>
        <tripinfo-output value="E:/licenta/oras-mediu/2025-06-05-11-45-23/tripinfo.xml"/>
    </output>

    <processing>
        <ignore-route-errors value="true"/>
        <tls.actuated.jam-threshold value="30"/>
    </processing>

    <routing>
        <device.rerouting.adaptation-steps value="18"/>
        <device.rerouting.adaptation-interval value="10"/>
    </routing>

    <report>
        <verbose value="true"/>
        <duration-log.statistics value="true"/>
        <no-step-log value="true"/>
    </report>

    <traci_server>
        <remote-port value="62958"/>
    </traci_server>

    <gui_only>
        <gui-settings-file value="E:/licenta/oras-mediu/2025-06-05-11-45-23/osm.view.xml"/>
    </gui_only>

</sumoConfiguration>
-->

<tripinfos xmlns:xsi="http://www.w3.org/2001/XMLSchema-instance" xsi:noNamespaceSchemaLocation="http://sumo.dlr.de/xsd/tripinfo_file.xsd">
    <personinfo id="ped0" depart="0.00" type="DEFAULT_PEDTYPE" speedFactor="1.03" duration="38.00" waitingTime="0.00" timeLoss="3.84" traveltime="38.00">
        <walk depart="0.00" departPos="0.00" arrival="38.00" arrivalPos="48.88" duration="38.00" routeLength="48.88" timeLoss="3.84" maxSpeed="1.43"/>
    </personinfo>
    <tripinfo id="veh7" depart="4.00" departLane="996984134_0" departPos="54.47" departSpeed="0.00" departDelay="0.50" arrival="81.00" arrivalLane="40269009#0_1" arrivalPos="22.67" arrivalSpeed="11.72" duration="77.00" routeLength="842.97" waitingTime="0.00" waitingCount="0" stopTime="0.00" timeLoss="17.80" rerouteNo="0" devices="tripinfo_veh7" vType="passenger" speedFactor="1.12" vaporized=""/>
    <tripinfo id="veh113" depart="57.00" departLane="43544138#4_1" departPos="23.54" departSpeed="0.00" departDelay="0.50" arrival="90.00" arrivalLane="-48778526_1" arrivalPos="97.35" arrivalSpeed="12.85" duration="33.00" routeLength="306.18" waitingTime="0.00" waitingCount="0" stopTime="0.00" timeLoss="9.50" rerouteNo="0" devices="tripinfo_veh113" vType="emergency" speedFactor="1.00" vaporized=""/>
    <tripinfo id="veh52" depart="26.00" departLane="-43544138#1_1" departPos="19.10" departSpeed="0.00" departDelay="0.00" arrival="93.00" arrivalLane="43546092_1" arrivalPos="223.82" arrivalSpeed="13.03" duration="67.00" routeLength="703.74" waitingTime="0.00" waitingCount="0" stopTime="0.00" timeLoss="13.10" rerouteNo="0" devices="tripinfo_veh52" vType="delivery" speedFactor="0.99" vaporized=""/>
    <tripinfo id="veh128" depart="64.00" departLane="40345930_1" departPos="16.53" departSpeed="0.00" departDelay="0.00" arrival="107.00" arrivalLane="-996984133_1" arrivalPos="75.36" arrivalSpeed="8.09" duration="43.00" routeLength="369.81" waitingTime="0.00" waitingCount="0" stopTime="0.00" timeLoss="11.13" rerouteNo="0" devices="tripinfo_veh128" vType="motorcycle" speedFactor="1.01" vaporized=""/>
    <tripinfo id="veh50" depart="25.00" departLane="-48778449#2_1" departPos="3.00" departSpeed="0.00" departDelay="0.00" arrival="115.00" arrivalLane="-48797772_1" arrivalPos="103.62" arrivalSpeed="14.51" duration="90.00" routeLength="866.63" waitingTime="0.00" waitingCount="0" stopTime="0.00" timeLoss="31.22" rerouteNo="0" devices="tripinfo_veh50" vType="passenger" speedFactor="1.12" vaporized=""/>
    <tripinfo id="veh9" depart="5.00" departLane="-43547017#4_1" departPos="4.72" departSpeed="0.00" departDelay="0.50" arrival="121.00" arrivalLane="48778510#1_1" arrivalPos="102.69" arrivalSpeed="12.44" duration="116.00" routeLength="1172.89" waitingTime="0.00" waitingCount="0" stopTime="0.00" timeLoss="17.05" rerouteNo="0" devices="tripinfo_veh9" vType="passenger" speedFactor="0.90" vaporized=""/>
    <tripinfo id="veh40" depart="20.00" departLane="984521612#0_0" departPos="10.30" departSpeed="0.00" departDelay="0.00" arrival="124.00" arrivalLane="-40236228#0_1" arrivalPos="90.81" arrivalSpeed="14.49" duration="104.00" routeLength="931.98" waitingTime="0.00" waitingCount="0" stopTime="0.00" timeLoss="29.51" rerouteNo="0" devices="tripinfo_veh40" vType="passenger" speedFactor="1.06" vaporized=""/>
    <tripinfo id="veh109" depart="55.00" departLane="-671642291_1" departPos="43.99" departSpeed="0.00" departDelay="0.50" arrival="130.00" arrivalLane="43544001#8_1" arrivalPos="45.27" arrivalSpeed="14.35" duration="75.00" routeLength="826.86" waitingTime="0.00" waitingCount="0" stopTime="0.00" timeLoss="13.56" rerouteNo="0" devices="tripinfo_veh109" vType="motorcycle" speedFactor="1.04" vaporized=""/>
    <tripinfo id="veh177" depart="89.00" departLane="-304695350#1_1" departPos="151.54" departSpeed="0.00" departDelay="0.50" arrival="131.00" arrivalLane="-1054663939_1" arrivalPos="21.68" arrivalSpeed="9.31" duration="42.00" routeLength="379.75" waitingTime="0.00" waitingCount="0" stopTime="0.00" timeLoss="10.17" rerouteNo="0" devices="tripinfo_veh177" vType="passenger" speedFactor="1.17" vaporized=""/>
    <tripinfo id="veh53" depart="27.00" departLane="48736612#6_1" departPos="0.11" departSpeed="0.00" departDelay="0.50" arrival="136.00" arrivalLane="40299241#3_1" arrivalPos="62.98" arrivalSpeed="12.28" duration="109.00" routeLength="1206.41" waitingTime="0.00" waitingCount="0" stopTime="0.00" timeLoss="15.25" rerouteNo="0" devices="tripinfo_veh53" vType="passenger" speedFactor="0.96" vaporized=""/>
    <tripinfo id="veh19" depart="10.00" departLane="67712683_1" departPos="65.69" departSpeed="0.00" departDelay="0.50" arrival="137.00" arrivalLane="48778485#1_1" arrivalPos="18.27" arrivalSpeed="11.26" duration="127.00" routeLength="1131.04" waitingTime="0.00" waitingCount="0" stopTime="0.00" timeLoss="25.95" rerouteNo="0" devices="tripinfo_veh19" vType="passenger" speedFactor="0.87" vaporized=""/>
    <tripinfo id="veh21" depart="11.00" departLane="-43546519#2_1" departPos="2.65" departSpeed="0.00" departDelay="0.50" arrival="138.00" arrivalLane="48778453_1" arrivalPos="29.18" arrivalSpeed="12.00" duration="127.00" routeLength="1393.94" waitingTime="7.00" waitingCount="1" stopTime="0.00" timeLoss="33.98" rerouteNo="0" devices="tripinfo_veh21" vType="passenger" speedFactor="1.13" vaporized=""/>
    <tripinfo id="veh162" depart="81.00" departLane="-48778504_1" departPos="91.08" departSpeed="0.00" departDelay="0.00" arrival="138.00" arrivalLane="-264868325_1" arrivalPos="96.14" arrivalSpeed="12.71" duration="57.00" routeLength="525.30" waitingTime="0.00" waitingCount="0" stopTime="0.00" timeLoss="12.04" rerouteNo="0" devices="tripinfo_veh162" vType="delivery" speedFactor="0.94" vaporized=""/>
    <tripinfo id="veh90" depart="45.00" departLane="222609002#3_1" departPos="53.97" departSpeed="0.00" departDelay="0.00" arrival="140.00" arrivalLane="-996489799#2_0" arrivalPos="59.30" arrivalSpeed="5.43" duration="95.00" routeLength="983.49" waitingTime="0.00" waitingCount="0" stopTime="0.00" timeLoss="19.89" rerouteNo="0" devices="tripinfo_veh90" vType="passenger" speedFactor="1.10" vaporized=""/>
    <tripinfo id="veh101" depart="51.00" departLane="-383582853_0" departPos="0.66" departSpeed="0.00" departDelay="0.50" arrival="142.00" arrivalLane="-40314583#1_1" arrivalPos="68.45" arrivalSpeed="13.73" duration="91.00" routeLength="922.04" waitingTime="0.00" waitingCount="0" stopTime="0.00" timeLoss="16.74" rerouteNo="0" devices="tripinfo_veh101" vType="passenger" speedFactor="1.03" vaporized=""/>
    <tripinfo id="veh62" depart="31.00" departLane="-647998063#1_1" departPos="54.93" departSpeed="0.00" departDelay="0.00" arrival="151.00" arrivalLane="43544179#11_1" arrivalPos="85.20" arrivalSpeed="12.19" duration="120.00" routeLength="1170.12" waitingTime="0.00" waitingCount="0" stopTime="0.00" timeLoss="23.26" rerouteNo="0" devices="tripinfo_veh62" vType="passenger" speedFactor="0.92" vaporized=""/>
    <tripinfo id="veh199" depart="100.00" departLane="383582518#0_0" departPos="50.55" departSpeed="0.00" departDelay="0.50" arrival="154.00" arrivalLane="-143207979#2_1" arrivalPos="38.82" arrivalSpeed="13.71" duration="54.00" routeLength="558.28" waitingTime="0.00" waitingCount="0" stopTime="0.00" timeLoss="9.17" rerouteNo="0" devices="tripinfo_veh199" vType="delivery" speedFactor="1.01" vaporized=""/>
    <tripinfo id="veh114" depart="57.00" departLane="647762524_1" departPos="19.44" departSpeed="0.00" departDelay="0.00" arrival="157.00" arrivalLane="-176279225#2_2" arrivalPos="97.77" arrivalSpeed="14.07" duration="100.00" routeLength="1148.92" waitingTime="0.00" waitingCount="0" stopTime="0.00" timeLoss="10.18" rerouteNo="0" devices="tripinfo_veh114" vType="passenger" speedFactor="1.02" vaporized=""/>
    <tripinfo id="veh1" depart="1.00" departLane="48778443#0_1" departPos="0.13" departSpeed="0.00" departDelay="0.50" arrival="160.00" arrivalLane="-43573547#2_1" arrivalPos="42.21" arrivalSpeed="14.26" duration="159.00" routeLength="1638.36" waitingTime="2.00" waitingCount="1" stopTime="0.00" timeLoss="44.13" rerouteNo="0" devices="tripinfo_veh1" vType="passenger" speedFactor="1.08" vaporized=""/>
    <tripinfo id="veh115" depart="58.00" departLane="48778489#3_1" departPos="118.15" departSpeed="0.00" departDelay="0.50" arrival="162.00" arrivalLane="222605084#0_1" arrivalPos="0.21" arrivalSpeed="5.88" duration="104.00" routeLength="1022.15" waitingTime="4.00" waitingCount="1" stopTime="0.00" timeLoss="21.52" rerouteNo="0" devices="tripinfo_veh115" vType="passenger" speedFactor="1.06" vaporized=""/>
    <tripinfo id="veh74" depart="37.00" departLane="43573547#1_1" departPos="23.90" departSpeed="0.00" departDelay="0.00" arrival="163.00" arrivalLane="48778527_1" arrivalPos="56.14" arrivalSpeed="10.86" duration="126.00" routeLength="1210.77" waitingTime="0.00" waitingCount="0" stopTime="0.00" timeLoss="18.34" rerouteNo="0" devices="tripinfo_veh74" vType="passenger" speedFactor="0.86" vaporized=""/>
    <tripinfo id="veh118" depart="59.00" departLane="43544001#11_1" departPos="3.55" departSpeed="0.00" departDelay="0.00" arrival="166.00" arrivalLane="48778514#2_1" arrivalPos="129.42" arrivalSpeed="14.59" duration="107.00" routeLength="1055.45" waitingTime="7.00" waitingCount="1" stopTime="0.00" timeLoss="31.76" rerouteNo="0" devices="tripinfo_veh118" vType="delivery" speedFactor="1.06" vaporized=""/>
    <tripinfo id="veh161" depart="81.00" departLane="383582512#0_0" departPos="5.97" departSpeed="0.00" departDelay="0.50" arrival="166.00" arrivalLane="48778524#4_1" arrivalPos="30.32" arrivalSpeed="15.15" duration="85.00" routeLength="631.52" waitingTime="8.00" waitingCount="1" stopTime="0.00" timeLoss="38.06" rerouteNo="0" devices="tripinfo_veh161" vType="passenger" speedFactor="1.15" vaporized=""/>
    <personinfo id="ped12" depart="60.00" type="DEFAULT_PEDTYPE" speedFactor="1.14" duration="107.00" waitingTime="0.00" timeLoss="10.31" traveltime="107.00">
        <walk depart="60.00" departPos="0.00" arrival="167.00" arrivalPos="9.25" duration="107.00" routeLength="153.67" timeLoss="10.31" maxSpeed="1.59"/>
    </personinfo>
    <tripinfo id="veh72" depart="36.00" departLane="-859728622_0" departPos="193.10" departSpeed="0.00" departDelay="0.00" arrival="168.00" arrivalLane="-1054663939_1" arrivalPos="21.68" arrivalSpeed="7.90" duration="132.00" routeLength="1342.74" waitingTime="0.00" waitingCount="0" stopTime="0.00" timeLoss="21.90" rerouteNo="0" devices="tripinfo_veh72" vType="passenger" speedFactor="1.05" vaporized=""/>
    <tripinfo id="veh23" depart="12.00" departLane="-48736639#0_1" departPos="28.51" departSpeed="0.00" departDelay="0.50" arrival="173.00" arrivalLane="-40236220#1_1" arrivalPos="30.08" arrivalSpeed="15.96" duration="161.00" routeLength="1401.33" waitingTime="36.00" waitingCount="1" stopTime="0.00" timeLoss="69.51" rerouteNo="0" devices="tripinfo_veh23" vType="passenger" speedFactor="1.15" vaporized=""/>
    <tripinfo id="veh88" depart="44.00" departLane="-222608881#1_1" departPos="16.26" departSpeed="0.00" departDelay="0.00" arrival="175.00" arrivalLane="43546064#0_1" arrivalPos="168.39" arrivalSpeed="11.44" duration="131.00" routeLength="1195.53" waitingTime="8.00" waitingCount="1" stopTime="0.00" timeLoss="28.82" rerouteNo="0" devices="tripinfo_veh88" vType="passenger" speedFactor="0.87" vaporized=""/>
    <tripinfo id="veh119" depart="60.00" departLane="-43573573#4_1" departPos="72.23" departSpeed="0.00" departDelay="0.50" arrival="177.00" arrivalLane="-578560104#3_1" arrivalPos="122.64" arrivalSpeed="15.72" duration="117.00" routeLength="1482.66" waitingTime="0.00" waitingCount="0" stopTime="0.00" timeLoss="27.50" rerouteNo="0" devices="tripinfo_veh119" vType="passenger" speedFactor="1.21" vaporized=""/>
    <tripinfo id="veh56" depart="28.00" departLane="-671386628#1_1" departPos="180.90" departSpeed="0.00" departDelay="0.00" arrival="178.00" arrivalLane="43573547#8_1" arrivalPos="83.79" arrivalSpeed="13.41" duration="150.00" routeLength="1648.17" waitingTime="3.00" waitingCount="1" stopTime="0.00" timeLoss="28.89" rerouteNo="0" devices="tripinfo_veh56" vType="passenger" speedFactor="1.02" vaporized=""/>
    <tripinfo id="veh229" depart="115.00" departLane="1136284448_1" departPos="3.37" departSpeed="0.00" departDelay="0.50" arrival="180.00" arrivalLane="43546109_1" arrivalPos="180.80" arrivalSpeed="14.27" duration="65.00" routeLength="639.85" waitingTime="0.00" waitingCount="0" stopTime="0.00" timeLoss="16.84" rerouteNo="0" devices="tripinfo_veh229" vType="passenger" speedFactor="1.05" vaporized=""/>
    <tripinfo id="veh13" depart="7.00" departLane="-48736647#1_1" departPos="4.18" departSpeed="0.00" departDelay="0.50" arrival="182.00" arrivalLane="-40299739#1_1" arrivalPos="75.94" arrivalSpeed="13.33" duration="175.00" routeLength="1972.05" waitingTime="1.00" waitingCount="1" stopTime="0.00" timeLoss="24.20" rerouteNo="0" devices="tripinfo_veh13" vType="delivery" speedFactor="0.97" vaporized=""/>
    <tripinfo id="veh3" depart="2.00" departLane="354252039#1_1" departPos="0.84" departSpeed="0.00" departDelay="0.50" arrival="183.00" arrivalLane="-264868325_1" arrivalPos="96.14" arrivalSpeed="11.87" duration="181.00" routeLength="1915.39" waitingTime="0.00" waitingCount="0" stopTime="0.00" timeLoss="26.41" rerouteNo="0" devices="tripinfo_veh3" vType="passenger" speedFactor="0.94" vaporized=""/>
    <tripinfo id="veh15" depart="8.00" departLane="48778493#1_1" departPos="24.80" departSpeed="0.00" departDelay="0.50" arrival="185.00" arrivalLane="-92198453#0_1" arrivalPos="257.77" arrivalSpeed="13.40" duration="177.00" routeLength="2000.49" waitingTime="7.00" waitingCount="1" stopTime="0.00" timeLoss="27.91" rerouteNo="0" devices="tripinfo_veh15" vType="passenger" speedFactor="1.02" vaporized=""/>
    <tripinfo id="veh43" depart="22.00" departLane="43547256#0_1" departPos="278.51" departSpeed="0.00" departDelay="0.50" arrival="188.00" arrivalLane="43547296#0_1" arrivalPos="158.91" arrivalSpeed="13.10" duration="166.00" routeLength="1883.68" waitingTime="0.00" waitingCount="0" stopTime="0.00" timeLoss="26.85" rerouteNo="0" devices="tripinfo_veh43" vType="motorcycle" speedFactor="1.00" vaporized=""/>
    <tripinfo id="veh47" depart="24.00" departLane="250295513_1" departPos="31.33" departSpeed="0.00" departDelay="0.50" arrival="188.00" arrivalLane="671642321_1" arrivalPos="87.26" arrivalSpeed="4.86" duration="164.00" routeLength="1226.54" waitingTime="37.00" waitingCount="2" stopTime="0.00" timeLoss="65.63" rerouteNo="0" devices="tripinfo_veh47" vType="passenger" speedFactor="1.02" vaporized=""/>
    <tripinfo id="veh48" depart="24.00" departLane="40236220#1_1" departPos="3.74" departSpeed="0.00" departDelay="0.00" arrival="192.00" arrivalLane="-48736620#5_1" arrivalPos="11.94" arrivalSpeed="13.44" duration="168.00" routeLength="1652.82" waitingTime="8.00" waitingCount="1" stopTime="0.00" timeLoss="42.92" rerouteNo="0" devices="tripinfo_veh48" vType="passenger" speedFactor="1.00" vaporized=""/>
    <personinfo id="ped21" depart="105.00" type="DEFAULT_PEDTYPE" speedFactor="1.17" duration="88.00" waitingTime="0.00" timeLoss="8.70" traveltime="88.00">
        <walk depart="105.00" departPos="0.00" arrival="193.00" arrivalPos="26.20" duration="88.00" routeLength="129.19" timeLoss="8.70" maxSpeed="1.63"/>
    </personinfo>
    <tripinfo id="veh171" depart="86.00" departLane="-984521612#1_0" departPos="12.54" departSpeed="0.00" departDelay="0.50" arrival="194.00" arrivalLane="-43546449#1_1" arrivalPos="41.66" arrivalSpeed="12.80" duration="108.00" routeLength="1030.93" waitingTime="0.00" waitingCount="0" stopTime="0.00" timeLoss="20.71" rerouteNo="0" devices="tripinfo_veh171" vType="motorcycle" speedFactor="1.00" vaporized=""/>
    <tripinfo id="veh185" depart="93.00" departLane="-984508804_0" departPos="19.01" departSpeed="0.00" departDelay="0.50" arrival="194.00" arrivalLane="40265777#1_1" arrivalPos="65.39" arrivalSpeed="12.36" duration="101.00" routeLength="894.50" waitingTime="2.00" waitingCount="2" stopTime="0.00" timeLoss="26.54" rerouteNo="0" devices="tripinfo_veh185" vType="passenger" speedFactor="0.92" vaporized=""/>
    <tripinfo id="veh202" depart="101.00" departLane="43573478_1" departPos="80.22" departSpeed="0.00" departDelay="0.00" arrival="195.00" arrivalLane="48778493#2_1" arrivalPos="44.65" arrivalSpeed="14.64" duration="94.00" routeLength="1036.31" waitingTime="0.00" waitingCount="0" stopTime="0.00" timeLoss="20.37" rerouteNo="0" devices="tripinfo_veh202" vType="passenger" speedFactor="1.07" vaporized=""/>
    <tripinfo id="veh4" depart="2.00" departLane="-48778498#1_1" departPos="17.61" departSpeed="0.00" departDelay="0.00" arrival="196.00" arrivalLane="-48736613#0_1" arrivalPos="29.50" arrivalSpeed="12.96" duration="194.00" routeLength="1794.96" waitingTime="36.00" waitingCount="2" stopTime="0.00" timeLoss="63.56" rerouteNo="0" devices="tripinfo_veh4" vType="passenger" speedFactor="1.02" vaporized=""/>
    <personinfo id="ped9" depart="45.00" type="DEFAULT_PEDTYPE" speedFactor="1.04" duration="155.00" waitingTime="0.00" timeLoss="14.45" traveltime="155.00">
        <walk depart="45.00" departPos="0.00" arrival="200.00" arrivalPos="35.45" duration="155.00" routeLength="203.28" timeLoss="14.45" maxSpeed="1.45"/>
    </personinfo>
    <tripinfo id="veh20" depart="10.00" departLane="-43544588#1_1" departPos="6.09" departSpeed="0.00" departDelay="0.00" arrival="200.00" arrivalLane="40236203#2_1" arrivalPos="10.97" arrivalSpeed="11.26" duration="190.00" routeLength="2091.18" waitingTime="0.00" waitingCount="0" stopTime="0.00" timeLoss="41.76" rerouteNo="0" devices="tripinfo_veh20" vType="passenger" speedFactor="1.03" vaporized=""/>
    <tripinfo id="veh99" depart="50.00" departLane="40236203#2_1" departPos="6.62" departSpeed="0.00" departDelay="0.50" arrival="200.00" arrivalLane="43544179#9_1" arrivalPos="251.14" arrivalSpeed="13.51" duration="150.00" routeLength="1819.58" waitingTime="0.00" waitingCount="0" stopTime="0.00" timeLoss="18.33" rerouteNo="0" devices="tripinfo_veh99" vType="passenger" speedFactor="1.02" vaporized=""/>
    <tripinfo id="veh175" depart="88.00" departLane="48736646#0_1" departPos="12.78" departSpeed="0.00" departDelay="0.50" arrival="201.00" arrivalLane="-48797772_1" arrivalPos="103.62" arrivalSpeed="13.98" duration="113.00" routeLength="1169.25" waitingTime="0.00" waitingCount="0" stopTime="0.00" timeLoss="26.27" rerouteNo="0" devices="tripinfo_veh175" vType="delivery" speedFactor="1.03" vaporized=""/>
    <tripinfo id="veh66" depart="33.00" departLane="48778526_1" departPos="17.27" departSpeed="0.00" departDelay="0.00" arrival="202.00" arrivalLane="-1205541344_0" arrivalPos="82.96" arrivalSpeed="5.13" duration="169.00" routeLength="1853.91" waitingTime="0.00" waitingCount="0" stopTime="0.00" timeLoss="33.03" rerouteNo="0" devices="tripinfo_veh66" vType="passenger" speedFactor="1.08" vaporized=""/>
    <tripinfo id="veh96" depart="48.00" departLane="945794108_1" departPos="1.75" departSpeed="0.00" departDelay="0.00" arrival="205.00" arrivalLane="-578560104#4_1" arrivalPos="13.09" arrivalSpeed="10.64" duration="157.00" routeLength="1386.78" waitingTime="22.00" waitingCount="1" stopTime="0.00" timeLoss="45.43" rerouteNo="0" devices="tripinfo_veh96" vType="motorcycle" speedFactor="0.94" vaporized=""/>
    <tripinfo id="veh33" depart="17.00" departLane="-995052183_0" departPos="24.66" departSpeed="0.00" departDelay="0.50" arrival="207.00" arrivalLane="48736612#3_1" arrivalPos="54.88" arrivalSpeed="14.56" duration="190.00" routeLength="1810.85" waitingTime="13.00" waitingCount="1" stopTime="0.00" timeLoss="34.63" rerouteNo="0" devices="tripinfo_veh33" vType="passenger" speedFactor="1.07" vaporized=""/>
    <personinfo id="ped11" depart="55.00" type="DEFAULT_PEDTYPE" speedFactor="1.20" duration="155.00" waitingTime="0.00" timeLoss="16.05" traveltime="155.00">
        <walk depart="55.00" departPos="0.00" arrival="210.00" arrivalPos="21.60" duration="155.00" routeLength="231.15" timeLoss="16.05" maxSpeed="1.66"/>
    </personinfo>
    <tripinfo id="veh61" depart="31.00" departLane="-43547579#3_1" departPos="55.34" departSpeed="0.00" departDelay="0.50" arrival="215.00" arrivalLane="-40236153#1_1" arrivalPos="106.23" arrivalSpeed="14.31" duration="184.00" routeLength="1857.78" waitingTime="5.00" waitingCount="1" stopTime="0.00" timeLoss="48.16" rerouteNo="0" devices="tripinfo_veh61" vType="passenger" speedFactor="1.03" vaporized=""/>
    <tripinfo id="veh231" depart="116.00" departLane="48778441#2_1" departPos="19.47" departSpeed="0.00" departDelay="0.50" arrival="215.00" arrivalLane="-40269009#0_1" arrivalPos="20.68" arrivalSpeed="13.08" duration="99.00" routeLength="903.11" waitingTime="0.00" waitingCount="0" stopTime="0.00" timeLoss="23.60" rerouteNo="0" devices="tripinfo_veh231" vType="delivery" speedFactor="1.01" vaporized=""/>
    <tripinfo id="veh143" depart="72.00" departLane="383582512#0_0" departPos="19.00" departSpeed="0.00" departDelay="0.50" arrival="218.00" arrivalLane="-48778485#0_1" arrivalPos="25.13" arrivalSpeed="12.76" duration="146.00" routeLength="1565.89" waitingTime="3.00" waitingCount="1" stopTime="0.00" timeLoss="31.48" rerouteNo="0" devices="tripinfo_veh143" vType="passenger" speedFactor="1.06" vaporized=""/>
    <tripinfo id="veh258" depart="129.00" departLane="40265777#0_1" departPos="66.80" departSpeed="0.00" departDelay="0.00" arrival="218.00" arrivalLane="-43573573#0_1" arrivalPos="20.40" arrivalSpeed="11.61" duration="89.00" routeLength="1040.37" waitingTime="0.00" waitingCount="0" stopTime="0.00" timeLoss="20.49" rerouteNo="0" devices="tripinfo_veh258" vType="passenger" speedFactor="1.13" vaporized=""/>
    <tripinfo id="veh340" depart="170.00" departLane="-43546648#4_1" departPos="44.63" departSpeed="0.00" departDelay="0.00" arrival="220.00" arrivalLane="-48797772_1" arrivalPos="103.62" arrivalSpeed="12.11" duration="50.00" routeLength="420.74" waitingTime="0.00" waitingCount="0" stopTime="0.00" timeLoss="15.22" rerouteNo="0" devices="tripinfo_veh340" vType="passenger" speedFactor="0.96" vaporized=""/>
    <tripinfo id="veh117" depart="59.00" departLane="-40265774#1_1" departPos="36.32" departSpeed="0.00" departDelay="0.50" arrival="221.00" arrivalLane="-1135772296#0_0" arrivalPos="22.09" arrivalSpeed="5.51" duration="162.00" routeLength="1453.27" waitingTime="18.00" waitingCount="1" stopTime="0.00" timeLoss="45.51" rerouteNo="0" devices="tripinfo_veh117" vType="delivery" speedFactor="1.01" vaporized=""/>
    <tripinfo id="veh60" depart="30.00" departLane="48778508#1_1" departPos="11.25" departSpeed="0.00" departDelay="0.00" arrival="222.00" arrivalLane="43544001#15_1" arrivalPos="24.26" arrivalSpeed="5.19" duration="192.00" routeLength="1521.76" waitingTime="57.00" waitingCount="2" stopTime="0.00" timeLoss="91.42" rerouteNo="0" devices="tripinfo_veh60" vType="passenger" speedFactor="1.12" vaporized=""/>
    <tripinfo id="veh160" depart="80.00" departLane="48778479_1" departPos="121.78" departSpeed="0.00" departDelay="0.00" arrival="225.00" arrivalLane="-43544197#4_1" arrivalPos="41.55" arrivalSpeed="12.95" duration="145.00" routeLength="1648.96" waitingTime="0.00" waitingCount="0" stopTime="0.00" timeLoss="21.91" rerouteNo="0" devices="tripinfo_veh160" vType="passenger" speedFactor="1.00" vaporized=""/>
    <tripinfo id="veh197" depart="99.00" departLane="-258551321_1" departPos="91.93" departSpeed="0.00" departDelay="0.50" arrival="225.00" arrivalLane="-48778505#2_1" arrivalPos="58.27" arrivalSpeed="12.95" duration="126.00" routeLength="1345.19" waitingTime="0.00" waitingCount="0" stopTime="0.00" timeLoss="24.24" rerouteNo="0" devices="tripinfo_veh197" vType="emergency" speedFactor="1.00" vaporized=""/>
    <tripinfo id="veh107" depart="54.00" departLane="48797767#0_1" departPos="1.44" departSpeed="0.00" departDelay="0.50" arrival="226.00" arrivalLane="-174818022#0_0" arrivalPos="26.26" arrivalSpeed="2.62" duration="172.00" routeLength="1100.47" waitingTime="0.00" waitingCount="0" stopTime="0.00" timeLoss="36.98" rerouteNo="0" devices="tripinfo_veh107" vType="motorcycle" speedFactor="0.84" vaporized=""/>
    <personinfo id="ped4" depart="20.00" type="DEFAULT_PEDTYPE" speedFactor="0.94" duration="207.00" waitingTime="0.00" timeLoss="78.33" traveltime="207.00">
        <walk depart="20.00" departPos="0.00" arrival="227.00" arrivalPos="32.51" duration="207.00" routeLength="168.36" timeLoss="78.33" maxSpeed="1.31"/>
    </personinfo>
    <tripinfo id="veh93" depart="47.00" departLane="-1054663943_1" departPos="5.67" departSpeed="0.00" departDelay="0.50" arrival="228.00" arrivalLane="-174818022#0_0" arrivalPos="26.26" arrivalSpeed="5.79" duration="181.00" routeLength="1115.07" waitingTime="29.00" waitingCount="2" stopTime="0.00" timeLoss="80.02" rerouteNo="0" devices="tripinfo_veh93" vType="passenger" speedFactor="1.13" vaporized=""/>
    <tripinfo id="veh243" depart="122.00" departLane="647741479_1" departPos="73.66" departSpeed="0.00" departDelay="0.50" arrival="228.00" arrivalLane="48736624#1_1" arrivalPos="65.19" arrivalSpeed="15.69" duration="106.00" routeLength="1298.42" waitingTime="0.00" waitingCount="0" stopTime="0.00" timeLoss="20.84" rerouteNo="0" devices="tripinfo_veh243" vType="passenger" speedFactor="1.16" vaporized=""/>
    <tripinfo id="veh129" depart="65.00" departLane="43544001#3_1" departPos="25.93" departSpeed="0.00" departDelay="0.50" arrival="232.00" arrivalLane="48778431#10_1" arrivalPos="349.08" arrivalSpeed="12.06" duration="167.00" routeLength="1266.95" waitingTime="52.00" waitingCount="1" stopTime="0.00" timeLoss="65.25" rerouteNo="0" devices="tripinfo_veh129" vType="passenger" speedFactor="0.91" vaporized=""/>
    <tripinfo id="veh244" depart="122.00" departLane="-48778494#0_1" departPos="2.18" departSpeed="0.00" departDelay="0.00" arrival="232.00" arrivalLane="40330575#3_1" arrivalPos="23.10" arrivalSpeed="12.29" duration="110.00" routeLength="1187.52" waitingTime="0.00" waitingCount="0" stopTime="0.00" timeLoss="19.70" rerouteNo="0" devices="tripinfo_veh244" vType="emergency" speedFactor="1.00" vaporized=""/>
    <tripinfo id="veh94" depart="47.00" departLane="43546789#1_1" departPos="36.23" departSpeed="0.00" departDelay="0.00" arrival="233.00" arrivalLane="40299276#0_1" arrivalPos="12.92" arrivalSpeed="10.65" duration="186.00" routeLength="1952.31" waitingTime="9.00" waitingCount="1" stopTime="0.00" timeLoss="40.36" rerouteNo="0" devices="tripinfo_veh94" vType="passenger" speedFactor="0.99" vaporized=""/>
    <tripinfo id="veh55" depart="28.00" departLane="48736611#1_1" departPos="4.81" departSpeed="0.00" departDelay="0.50" arrival="236.00" arrivalLane="-40314583#5_1" arrivalPos="16.26" arrivalSpeed="13.09" duration="208.00" routeLength="437.80" waitingTime="159.00" waitingCount="1" stopTime="0.00" timeLoss="172.39" rerouteNo="0" devices="tripinfo_veh55" vType="passenger" speedFactor="0.95" vaporized=""/>
    <tripinfo id="veh237" depart="119.00" departLane="-984508805_0" departPos="34.64" departSpeed="0.00" departDelay="0.50" arrival="236.00" arrivalLane="E12_1" arrivalPos="184.12" arrivalSpeed="13.36" duration="117.00" routeLength="1221.18" waitingTime="4.00" waitingCount="1" stopTime="0.00" timeLoss="22.78" rerouteNo="0" devices="tripinfo_veh237" vType="passenger" speedFactor="0.97" vaporized=""/>
    <tripinfo id="veh44" depart="22.00" departLane="48736643_1" departPos="26.11" departSpeed="0.00" departDelay="0.00" arrival="237.00" arrivalLane="-48736666#0_1" arrivalPos="53.08" arrivalSpeed="5.99" duration="215.00" routeLength="1217.85" waitingTime="0.00" waitingCount="0" stopTime="0.00" timeLoss="15.39" rerouteNo="0" devices="tripinfo_veh44" vType="bicycle" speedFactor="1.10" vaporized=""/>
    <tripinfo id="veh73" depart="37.00" departLane="945794110_1" departPos="33.73" departSpeed="0.00" departDelay="0.50" arrival="238.00" arrivalLane="-43546053#1_1" arrivalPos="96.08" arrivalSpeed="13.81" duration="201.00" routeLength="2033.59" waitingTime="21.00" waitingCount="1" stopTime="0.00" timeLoss="56.22" rerouteNo="0" devices="tripinfo_veh73" vType="passenger" speedFactor="1.06" vaporized=""/>