<?xml version="1.0" encoding="UTF-8"?>

<!-- generated on 2025-06-12 11:09:15 by Eclipse SUMO sumo Version 1.22.0
<sumoConfiguration xmlns:xsi="http://www.w3.org/2001/XMLSchema-instance" xsi:noNamespaceSchemaLocation="http://sumo.dlr.de/xsd/sumoConfiguration.xsd">

    <input>
        <net-file value="E:/licenta/oras-mediu/2025-06-05-11-45-23/osm.net.xml"/>
        <route-files value="E:/licenta/oras-mediu/2025-06-05-11-45-23/full.rou.xml,E:/licenta/oras-mediu/2025-06-05-11-45-23/ ped.rou.xml,E:/licenta/oras-mediu/2025-06-05-11-45-23/ truck.rou.xml"/>
        <additional-files value="E:/licenta/oras-mediu/2025-06-05-11-45-23/osm.poly.xml,E:/licenta/oras-mediu/2025-06-05-11-45-23/ vtypes.xml"/>
    </input>

    <output>
        <summary-output value="E:/licenta/oras-mediu/2025-06-05-11-45-23/summary.xml"/>
        <tripinfo-output value="E:/licenta/oras-mediu/2025-06-05-11-45-23/tripinfo.xml"/>
    </output>

    <processing>
        <ignore-route-errors value="true"/>
        <tls.actuated.jam-threshold value="30"/>
    </processing>

    <routing>
        <device.rerouting.adaptation-steps value="18"/>
        <device.rerouting.adaptation-interval value="10"/>
    </routing>

    <report>
        <verbose value="true"/>
        <duration-log.statistics value="true"/>
        <no-step-log value="true"/>
    </report>

    <traci_server>
        <remote-port value="62085"/>
    </traci_server>

    <gui_only>
        <gui-settings-file value="E:/licenta/oras-mediu/2025-06-05-11-45-23/osm.view.xml"/>
    </gui_only>

</sumoConfiguration>
-->

<tripinfos xmlns:xsi="http://www.w3.org/2001/XMLSchema-instance" xsi:noNamespaceSchemaLocation="http://sumo.dlr.de/xsd/tripinfo_file.xsd">
    <tripinfo id="veh14" depart="11.00" departLane="48736641_1" departPos="5.09" departSpeed="0.00" departDelay="0.78" arrival="87.00" arrivalLane="-43546648#5_1" arrivalPos="18.50" arrivalSpeed="13.96" duration="76.00" routeLength="811.87" waitingTime="0.00" waitingCount="0" stopTime="0.00" timeLoss="14.05" rerouteNo="0" devices="tripinfo_veh14" vType="passenger" speedFactor="1.02" vaporized=""/>
    <tripinfo id="veh40" depart="30.00" departLane="-647762524_1" departPos="26.78" departSpeed="0.00" departDelay="0.80" arrival="120.00" arrivalLane="-43547579#3_1" arrivalPos="119.55" arrivalSpeed="15.97" duration="90.00" routeLength="979.03" waitingTime="0.00" waitingCount="0" stopTime="0.00" timeLoss="19.03" rerouteNo="0" devices="tripinfo_veh40" vType="passenger" speedFactor="1.17" vaporized=""/>
    <tripinfo id="veh67" depart="49.00" departLane="-43544179#10_1" departPos="5.94" departSpeed="0.00" departDelay="0.09" arrival="121.00" arrivalLane="-43544001#7_1" arrivalPos="45.62" arrivalSpeed="12.63" duration="72.00" routeLength="791.90" waitingTime="0.00" waitingCount="0" stopTime="0.00" timeLoss="12.01" rerouteNo="0" devices="tripinfo_veh67" vType="passenger" speedFactor="0.98" vaporized=""/>
    <tripinfo id="veh129" depart="95.00" departLane="-256555440#1_1" departPos="47.22" departSpeed="0.00" departDelay="0.83" arrival="131.00" arrivalLane="43546648#6_1" arrivalPos="186.87" arrivalSpeed="13.07" duration="36.00" routeLength="357.03" waitingTime="0.00" waitingCount="0" stopTime="0.00" timeLoss="8.43" rerouteNo="0" devices="tripinfo_veh129" vType="motorcycle" speedFactor="1.01" vaporized=""/>
    <tripinfo id="veh64" depart="47.00" departLane="258551281_1" departPos="28.95" departSpeed="0.00" departDelay="0.28" arrival="134.00" arrivalLane="48797766#2_1" arrivalPos="182.85" arrivalSpeed="14.02" duration="87.00" routeLength="944.20" waitingTime="0.00" waitingCount="0" stopTime="0.00" timeLoss="15.72" rerouteNo="0" devices="tripinfo_veh64" vType="passenger" speedFactor="1.02" vaporized=""/>
    <tripinfo id="veh53" depart="39.00" departLane="-48778485#1_1" departPos="0.25" departSpeed="0.00" departDelay="0.31" arrival="142.00" arrivalLane="43573547#5_1" arrivalPos="56.54" arrivalSpeed="11.40" duration="103.00" routeLength="978.68" waitingTime="0.00" waitingCount="0" stopTime="0.00" timeLoss="20.42" rerouteNo="0" devices="tripinfo_veh53" vType="passenger" speedFactor="0.91" vaporized=""/>
    <tripinfo id="veh60" depart="44.00" departLane="-1136283379#1_1" departPos="1.50" departSpeed="0.00" departDelay="0.20" arrival="142.00" arrivalLane="-984521612#0_0" arrivalPos="12.48" arrivalSpeed="5.24" duration="98.00" routeLength="919.53" waitingTime="0.00" waitingCount="0" stopTime="0.00" timeLoss="20.27" rerouteNo="0" devices="tripinfo_veh60" vType="passenger" speedFactor="1.03" vaporized=""/>
    <tripinfo id="veh134" depart="98.00" departLane="996984235_0" departPos="10.25" departSpeed="0.00" departDelay="0.18" arrival="146.00" arrivalLane="-40334245#0_1" arrivalPos="85.83" arrivalSpeed="15.34" duration="48.00" routeLength="579.57" waitingTime="0.00" waitingCount="0" stopTime="0.00" timeLoss="8.92" rerouteNo="0" devices="tripinfo_veh134" vType="passenger" speedFactor="1.13" vaporized=""/>
    <tripinfo id="veh43" depart="32.00" departLane="43573547#0_1" departPos="135.33" departSpeed="0.00" departDelay="0.61" arrival="151.00" arrivalLane="-256555440#1_1" arrivalPos="58.59" arrivalSpeed="11.98" duration="119.00" routeLength="1356.23" waitingTime="1.00" waitingCount="1" stopTime="0.00" timeLoss="19.16" rerouteNo="0" devices="tripinfo_veh43" vType="motorcycle" speedFactor="1.00" vaporized=""/>
    <tripinfo id="veh61" depart="45.00" departLane="-48778503#1_1" departPos="32.41" departSpeed="0.00" departDelay="0.47" arrival="151.00" arrivalLane="996489799#1_0" arrivalPos="59.51" arrivalSpeed="4.94" duration="106.00" routeLength="972.96" waitingTime="0.00" waitingCount="0" stopTime="0.00" timeLoss="17.64" rerouteNo="0" devices="tripinfo_veh61" vType="passenger" speedFactor="0.92" vaporized=""/>
    <tripinfo id="veh23" depart="17.00" departLane="43544138#8_1" departPos="5.70" departSpeed="0.00" departDelay="0.21" arrival="152.00" arrivalLane="-996984133_1" arrivalPos="75.36" arrivalSpeed="8.46" duration="135.00" routeLength="1647.91" waitingTime="0.00" waitingCount="0" stopTime="0.00" timeLoss="24.51" rerouteNo="0" devices="tripinfo_veh23" vType="passenger" speedFactor="1.15" vaporized=""/>
    <tripinfo id="veh109" depart="80.00" departLane="48797770_1" departPos="12.24" departSpeed="0.00" departDelay="0.43" arrival="152.00" arrivalLane="984521611#1_0" arrivalPos="22.34" arrivalSpeed="5.25" duration="72.00" routeLength="551.67" waitingTime="0.00" waitingCount="0" stopTime="0.00" timeLoss="15.40" rerouteNo="0" devices="tripinfo_veh109" vType="passenger" speedFactor="1.04" vaporized=""/>
    <tripinfo id="veh28" depart="21.00" departLane="48736620#6_1" departPos="1.15" departSpeed="0.00" departDelay="0.56" arrival="154.00" arrivalLane="33910068#1_1" arrivalPos="524.36" arrivalSpeed="13.44" duration="133.00" routeLength="1596.16" waitingTime="0.00" waitingCount="0" stopTime="0.00" timeLoss="18.22" rerouteNo="0" devices="tripinfo_veh28" vType="motorcycle" speedFactor="1.02" vaporized=""/>
    <tripinfo id="veh55" depart="41.00" departLane="48736648#0_0" departPos="0.00" departSpeed="0.00" departDelay="0.85" arrival="156.00" arrivalLane="945794109_1" arrivalPos="21.82" arrivalSpeed="7.55" duration="115.00" routeLength="1055.87" waitingTime="12.00" waitingCount="2" stopTime="0.00" timeLoss="36.72" rerouteNo="0" devices="tripinfo_veh55" vType="passenger" speedFactor="1.02" vaporized=""/>
    <tripinfo id="veh70" depart="52.00" departLane="43573547#1_1" departPos="13.71" departSpeed="0.00" departDelay="0.90" arrival="172.00" arrivalLane="353939570#10_1" arrivalPos="350.36" arrivalSpeed="10.95" duration="120.00" routeLength="1185.03" waitingTime="0.00" waitingCount="0" stopTime="0.00" timeLoss="14.51" rerouteNo="0" devices="tripinfo_veh70" vType="passenger" speedFactor="0.83" vaporized=""/>
    <tripinfo id="veh94" depart="69.00" departLane="40304754#4_1" departPos="13.09" departSpeed="0.00" departDelay="0.38" arrival="172.00" arrivalLane="48778461#1_1" arrivalPos="24.78" arrivalSpeed="11.50" duration="103.00" routeLength="983.71" waitingTime="0.00" waitingCount="0" stopTime="0.00" timeLoss="34.07" rerouteNo="0" devices="tripinfo_veh94" vType="passenger" speedFactor="1.13" vaporized=""/>
    <tripinfo id="veh8" depart="6.00" departLane="43544179#9_1" departPos="142.21" departSpeed="0.00" departDelay="0.16" arrival="178.00" arrivalLane="43546519#2_1" arrivalPos="8.00" arrivalSpeed="12.26" duration="172.00" routeLength="1898.57" waitingTime="1.00" waitingCount="1" stopTime="0.00" timeLoss="46.10" rerouteNo="0" devices="tripinfo_veh8" vType="passenger" speedFactor="1.12" vaporized=""/>
    <personinfo id="ped16" depart="80.00" type="DEFAULT_PEDTYPE" speedFactor="0.87" duration="102.00" waitingTime="0.00" timeLoss="11.24" traveltime="102.00">
        <walk depart="80.00" departPos="0.00" arrival="182.00" arrivalPos="18.43" duration="102.00" routeLength="110.00" timeLoss="11.24" maxSpeed="1.21"/>
    </personinfo>
    <tripinfo id="veh7" depart="6.00" departLane="1135854143_1" departPos="26.48" departSpeed="0.00" departDelay="0.89" arrival="184.00" arrivalLane="-945794110_1" arrivalPos="52.39" arrivalSpeed="7.35" duration="178.00" routeLength="1759.87" waitingTime="0.00" waitingCount="0" stopTime="0.00" timeLoss="29.37" rerouteNo="0" devices="tripinfo_veh7" vType="passenger" speedFactor="0.92" vaporized=""/>
    <personinfo id="ped1" depart="5.00" type="DEFAULT_PEDTYPE" speedFactor="0.83" duration="180.00" waitingTime="0.00" timeLoss="18.52" traveltime="180.00">
        <walk depart="5.00" departPos="0.00" arrival="185.00" arrivalPos="137.81" duration="180.00" routeLength="186.38" timeLoss="18.52" maxSpeed="1.15"/>
    </personinfo>
    <personinfo id="ped3" depart="15.00" type="DEFAULT_PEDTYPE" speedFactor="0.84" duration="171.00" waitingTime="0.00" timeLoss="17.05" traveltime="171.00">
        <walk depart="15.00" departPos="0.00" arrival="186.00" arrivalPos="46.68" duration="171.00" routeLength="178.88" timeLoss="17.05" maxSpeed="1.16"/>
    </personinfo>
    <tripinfo id="veh68" depart="50.00" departLane="43546460#6_1" departPos="13.67" departSpeed="0.00" departDelay="0.36" arrival="188.00" arrivalLane="-43544197#6_1" arrivalPos="40.81" arrivalSpeed="12.74" duration="138.00" routeLength="1652.16" waitingTime="2.00" waitingCount="1" stopTime="0.00" timeLoss="17.30" rerouteNo="0" devices="tripinfo_veh68" vType="passenger" speedFactor="1.01" vaporized=""/>
    <tripinfo id="veh36" depart="27.00" departLane="945794111_1" departPos="25.47" departSpeed="0.00" departDelay="0.72" arrival="195.00" arrivalLane="48797769_1" arrivalPos="15.35" arrivalSpeed="14.55" duration="168.00" routeLength="1790.85" waitingTime="16.00" waitingCount="1" stopTime="0.00" timeLoss="44.10" rerouteNo="0" devices="tripinfo_veh36" vType="passenger" speedFactor="1.09" vaporized=""/>
    <tripinfo id="veh2" depart="2.00" departLane="40334244#3_1" departPos="104.30" departSpeed="0.00" departDelay="0.54" arrival="197.00" arrivalLane="43546449#1_1" arrivalPos="41.66" arrivalSpeed="13.86" duration="195.00" routeLength="1686.53" waitingTime="46.00" waitingCount="3" stopTime="0.00" timeLoss="78.41" rerouteNo="0" devices="tripinfo_veh2" vType="passenger" speedFactor="1.08" vaporized=""/>
    <personinfo id="ped20" depart="100.00" type="DEFAULT_PEDTYPE" speedFactor="1.05" duration="99.00" waitingTime="0.00" timeLoss="9.61" traveltime="99.00">
        <walk depart="100.00" departPos="0.00" arrival="199.00" arrivalPos="11.02" duration="99.00" routeLength="130.26" timeLoss="9.61" maxSpeed="1.46"/>
    </personinfo>
    <tripinfo id="veh65" depart="48.00" departLane="-996486454#1_1" departPos="5.63" departSpeed="0.00" departDelay="0.55" arrival="199.00" arrivalLane="1136289991_1" arrivalPos="31.14" arrivalSpeed="8.04" duration="151.00" routeLength="1222.07" waitingTime="1.00" waitingCount="1" stopTime="0.00" timeLoss="62.61" rerouteNo="0" devices="tripinfo_veh65" vType="passenger" speedFactor="1.08" vaporized=""/>
    <tripinfo id="veh29" depart="22.00" departLane="48778508#2_1" departPos="0.31" departSpeed="0.00" departDelay="0.83" arrival="200.00" arrivalLane="43544001#9_1" arrivalPos="174.12" arrivalSpeed="12.95" duration="178.00" routeLength="1950.71" waitingTime="0.00" waitingCount="0" stopTime="0.00" timeLoss="22.86" rerouteNo="0" devices="tripinfo_veh29" vType="passenger" speedFactor="0.94" vaporized=""/>
    <personinfo id="ped37" depart="185.00" type="DEFAULT_PEDTYPE" speedFactor="1.05" duration="16.00" waitingTime="0.00" timeLoss="2.10" traveltime="16.00">
        <walk depart="185.00" departPos="0.00" arrival="201.00" arrivalPos="5.95" duration="16.00" routeLength="20.26" timeLoss="2.10" maxSpeed="1.46"/>
    </personinfo>
    <tripinfo id="veh20" depart="15.00" departLane="43544001#6_1" departPos="3.41" departSpeed="0.00" departDelay="0.40" arrival="203.00" arrivalLane="40236228#0_1" arrivalPos="90.63" arrivalSpeed="13.74" duration="188.00" routeLength="1952.98" waitingTime="15.00" waitingCount="1" stopTime="0.00" timeLoss="47.62" rerouteNo="0" devices="tripinfo_veh20" vType="passenger" speedFactor="1.03" vaporized=""/>
    <tripinfo id="veh86" depart="63.00" departLane="-40314876_1" departPos="11.13" departSpeed="0.00" departDelay="0.22" arrival="205.00" arrivalLane="40266907#1_1" arrivalPos="33.57" arrivalSpeed="13.13" duration="142.00" routeLength="1273.05" waitingTime="15.00" waitingCount="2" stopTime="0.00" timeLoss="43.04" rerouteNo="0" devices="tripinfo_veh86" vType="passenger" speedFactor="0.98" vaporized=""/>
    <tripinfo id="veh113" depart="83.00" departLane="-470210923#2_2" departPos="37.84" departSpeed="0.00" departDelay="0.51" arrival="205.00" arrivalLane="40236093_1" arrivalPos="79.24" arrivalSpeed="13.34" duration="122.00" routeLength="1333.53" waitingTime="0.00" waitingCount="0" stopTime="0.00" timeLoss="23.50" rerouteNo="0" devices="tripinfo_veh113" vType="passenger" speedFactor="1.02" vaporized=""/>
    <tripinfo id="veh178" depart="130.00" departLane="48778485#0_1" departPos="4.56" departSpeed="0.00" departDelay="0.06" arrival="210.00" arrivalLane="48778496_1" arrivalPos="81.85" arrivalSpeed="9.12" duration="80.00" routeLength="859.38" waitingTime="0.00" waitingCount="0" stopTime="0.00" timeLoss="18.10" rerouteNo="0" devices="tripinfo_veh178" vType="passenger" speedFactor="1.17" vaporized=""/>
    <tripinfo id="veh9" depart="7.00" departLane="383582498_0" departPos="158.92" departSpeed="0.00" departDelay="0.43" arrival="214.00" arrivalLane="-859726677#0_1" arrivalPos="35.20" arrivalSpeed="4.57" duration="207.00" routeLength="2009.05" waitingTime="6.00" waitingCount="1" stopTime="0.00" timeLoss="29.54" rerouteNo="0" devices="tripinfo_veh9" vType="passenger" speedFactor="0.90" vaporized=""/>
    <tripinfo id="veh32" depart="24.00" departLane="-1136283361_0" departPos="19.67" departSpeed="0.00" departDelay="0.64" arrival="214.00" arrivalLane="-258551281_1" arrivalPos="67.94" arrivalSpeed="14.10" duration="190.00" routeLength="1611.76" waitingTime="44.00" waitingCount="3" stopTime="0.00" timeLoss="69.04" rerouteNo="0" devices="tripinfo_veh32" vType="passenger" speedFactor="1.03" vaporized=""/>
    <tripinfo id="veh13" depart="10.00" departLane="383582494_0" departPos="55.91" departSpeed="0.00" departDelay="0.51" arrival="217.00" arrivalLane="48736645_1" arrivalPos="132.12" arrivalSpeed="13.32" duration="207.00" routeLength="2059.36" waitingTime="0.00" waitingCount="0" stopTime="0.00" timeLoss="28.92" rerouteNo="0" devices="tripinfo_veh13" vType="emergency" speedFactor="1.00" vaporized=""/>
    <tripinfo id="veh210" depart="154.00" departLane="222608881#1_1" departPos="31.75" departSpeed="0.00" departDelay="0.70" arrival="219.00" arrivalLane="-43544624#3_1" arrivalPos="179.18" arrivalSpeed="12.42" duration="65.00" routeLength="642.54" waitingTime="2.00" waitingCount="1" stopTime="0.00" timeLoss="14.05" rerouteNo="0" devices="tripinfo_veh210" vType="passenger" speedFactor="0.96" vaporized=""/>
    <tripinfo id="veh41" depart="30.00" departLane="43546379_1" departPos="2.49" departSpeed="0.00" departDelay="0.07" arrival="221.00" arrivalLane="48736614#3_1" arrivalPos="117.48" arrivalSpeed="13.42" duration="191.00" routeLength="2038.73" waitingTime="16.00" waitingCount="1" stopTime="0.00" timeLoss="47.38" rerouteNo="0" devices="tripinfo_veh41" vType="passenger" speedFactor="1.05" vaporized=""/>
    <tripinfo id="veh293" depart="214.00" departLane="1136119743#0_1" departPos="23.86" departSpeed="0.00" departDelay="0.11" arrival="221.00" arrivalLane="1136119743#1_1" arrivalPos="27.12" arrivalSpeed="9.41" duration="7.00" routeLength="42.13" waitingTime="0.00" waitingCount="0" stopTime="0.00" timeLoss="2.20" rerouteNo="0" devices="tripinfo_veh293" vType="passenger" speedFactor="1.19" vaporized=""/>
    <tripinfo id="veh21" depart="16.00" departLane="422283114_0" departPos="172.09" departSpeed="0.00" departDelay="0.67" arrival="222.00" arrivalLane="258551283#1_1" arrivalPos="55.98" arrivalSpeed="6.89" duration="206.00" routeLength="2375.44" waitingTime="22.00" waitingCount="2" stopTime="0.00" timeLoss="50.44" rerouteNo="0" devices="tripinfo_veh21" vType="passenger" speedFactor="1.13" vaporized=""/>
    <tripinfo id="veh88" depart="65.00" departLane="859735387#0_0" departPos="34.52" departSpeed="0.00" departDelay="0.76" arrival="224.00" arrivalLane="354252035_1" arrivalPos="106.56" arrivalSpeed="17.28" duration="159.00" routeLength="1987.84" waitingTime="0.00" waitingCount="0" stopTime="0.00" timeLoss="30.75" rerouteNo="0" devices="tripinfo_veh88" vType="passenger" speedFactor="1.25" vaporized=""/>
    <tripinfo id="veh25" depart="19.00" departLane="-647998063#2_1" departPos="19.16" departSpeed="0.00" departDelay="0.75" arrival="228.00" arrivalLane="222609002#3_1" arrivalPos="89.31" arrivalSpeed="14.32" duration="209.00" routeLength="2318.15" waitingTime="10.00" waitingCount="1" stopTime="0.00" timeLoss="57.26" rerouteNo="0" devices="tripinfo_veh25" vType="passenger" speedFactor="1.12" vaporized=""/>
    <tripinfo id="veh58" depart="43.00" departLane="-43544001#9_1" departPos="59.42" departSpeed="0.00" departDelay="0.66" arrival="230.00" arrivalLane="-945794110_1" arrivalPos="52.39" arrivalSpeed="8.15" duration="187.00" routeLength="2055.37" waitingTime="1.00" waitingCount="1" stopTime="0.00" timeLoss="39.32" rerouteNo="0" devices="tripinfo_veh58" vType="passenger" speedFactor="1.06" vaporized=""/>
    <tripinfo id="veh27" depart="20.00" departLane="-859728207_0" departPos="3.86" departSpeed="0.00" departDelay="0.29" arrival="231.00" arrivalLane="-530103975#0_1" arrivalPos="70.63" arrivalSpeed="12.95" duration="211.00" routeLength="1271.21" waitingTime="73.00" waitingCount="2" stopTime="0.00" timeLoss="99.36" rerouteNo="0" devices="tripinfo_veh27" vType="passenger" speedFactor="0.97" vaporized=""/>
    <tripinfo id="veh66" depart="49.00" departLane="-859737784_1" departPos="57.76" departSpeed="0.00" departDelay="0.82" arrival="233.00" arrivalLane="-48778517#0_1" arrivalPos="43.62" arrivalSpeed="7.26" duration="184.00" routeLength="1441.65" waitingTime="0.00" waitingCount="0" stopTime="0.00" timeLoss="66.72" rerouteNo="0" devices="tripinfo_veh66" vType="passenger" speedFactor="0.98" vaporized=""/>
    <tripinfo id="veh227" depart="166.00" departLane="43547017#1_1" departPos="15.94" departSpeed="0.00" departDelay="0.29" arrival="233.00" arrivalLane="48788485#8_1" arrivalPos="16.52" arrivalSpeed="11.61" duration="67.00" routeLength="673.84" waitingTime="0.00" waitingCount="0" stopTime="0.00" timeLoss="9.31" rerouteNo="0" devices="tripinfo_veh227" vType="passenger" speedFactor="0.87" vaporized=""/>
    <personinfo id="ped9" depart="45.00" type="DEFAULT_PEDTYPE" speedFactor="0.91" duration="189.00" waitingTime="0.00" timeLoss="19.61" traveltime="189.00">
        <walk depart="45.00" departPos="0.00" arrival="234.00" arrivalPos="84.19" duration="189.00" routeLength="213.76" timeLoss="19.61" maxSpeed="1.26"/>
    </personinfo>
    <tripinfo id="veh116" depart="85.00" departLane="174818022#0_0" departPos="4.71" departSpeed="0.00" departDelay="0.32" arrival="234.00" arrivalLane="-304695350#1_1" arrivalPos="233.86" arrivalSpeed="7.80" duration="149.00" routeLength="1145.94" waitingTime="0.00" waitingCount="0" stopTime="0.00" timeLoss="21.95" rerouteNo="0" devices="tripinfo_veh116" vType="delivery" speedFactor="1.01" vaporized=""/>
    <tripinfo id="veh35" depart="26.00" departLane="859728208#0_0" departPos="6.94" departSpeed="0.00" departDelay="0.45" arrival="236.00" arrivalLane="-48778475#0_1" arrivalPos="61.83" arrivalSpeed="13.78" duration="210.00" routeLength="1309.57" waitingTime="65.00" waitingCount="2" stopTime="0.00" timeLoss="96.26" rerouteNo="0" devices="tripinfo_veh35" vType="emergency" speedFactor="1.00" vaporized=""/>
    <personinfo id="ped21" depart="105.00" type="DEFAULT_PEDTYPE" speedFactor="1.07" duration="132.00" waitingTime="0.00" timeLoss="12.97" traveltime="132.00">
        <walk depart="105.00" departPos="0.00" arrival="237.00" arrivalPos="172.63" duration="132.00" routeLength="177.48" timeLoss="12.97" maxSpeed="1.49"/>
    </personinfo>
    <tripinfo id="veh125" depart="92.00" departLane="-40345956#2_1" departPos="9.97" departSpeed="0.00" departDelay="0.75" arrival="241.00" arrivalLane="-48736650#1_1" arrivalPos="15.41" arrivalSpeed="11.83" duration="149.00" routeLength="1629.68" waitingTime="0.00" waitingCount="0" stopTime="0.00" timeLoss="19.23" rerouteNo="0" devices="tripinfo_veh125" vType="passenger" speedFactor="0.94" vaporized=""/>
    <tripinfo id="veh221" depart="162.00" departLane="-289113778#1_1" departPos="282.43" departSpeed="0.00" departDelay="0.67" arrival="241.00" arrivalLane="43544179#4_1" arrivalPos="42.09" arrivalSpeed="15.45" duration="79.00" routeLength="959.92" waitingTime="0.00" waitingCount="0" stopTime="0.00" timeLoss="15.57" rerouteNo="0" devices="tripinfo_veh221" vType="delivery" speedFactor="1.13" vaporized=""/>
    <tripinfo id="veh16" depart="12.00" departLane="48788485#0_2" departPos="234.68" departSpeed="0.00" departDelay="0.32" arrival="242.00" arrivalLane="1250915722#0_1" arrivalPos="65.49" arrivalSpeed="4.85" duration="230.00" routeLength="2285.05" waitingTime="0.00" waitingCount="0" stopTime="0.00" timeLoss="20.32" rerouteNo="0" devices="tripinfo_veh16" vType="passenger" speedFactor="0.89" vaporized=""/>
    <tripinfo id="veh77" depart="57.00" departLane="273834906_1" departPos="22.23" departSpeed="0.00" departDelay="0.79" arrival="244.00" arrivalLane="43544179#7_1" arrivalPos="45.61" arrivalSpeed="14.50" duration="187.00" routeLength="2284.34" waitingTime="0.00" waitingCount="0" stopTime="0.00" timeLoss="30.03" rerouteNo="0" devices="tripinfo_veh77" vType="passenger" speedFactor="1.10" vaporized=""/>
    <tripinfo id="veh179" depart="131.00" departLane="43573547#0_1" departPos="36.49" departSpeed="0.00" departDelay="0.33" arrival="245.00" arrivalLane="-40330583#0_0" arrivalPos="91.11" arrivalSpeed="26.32" duration="114.00" routeLength="1505.65" waitingTime="0.00" waitingCount="0" stopTime="0.00" timeLoss="22.22" rerouteNo="0" devices="tripinfo_veh179" vType="motorcycle" speedFactor="1.10" vaporized=""/>
    <tripinfo id="veh128" depart="94.00" departLane="1136301813_1" departPos="12.07" departSpeed="0.00" departDelay="0.56" arrival="249.00" arrivalLane="-48736617#0_1" arrivalPos="24.82" arrivalSpeed="12.37" duration="155.00" routeLength="1487.91" waitingTime="26.00" waitingCount="1" stopTime="0.00" timeLoss="58.92" rerouteNo="0" devices="tripinfo_veh128" vType="passenger" speedFactor="1.18" vaporized=""/>
    <tripinfo id="veh4" depart="3.00" departLane="-48736625_1" departPos="10.99" departSpeed="0.00" departDelay="0.08" arrival="250.00" arrivalLane="-530103975#0_1" arrivalPos="70.63" arrivalSpeed="13.42" duration="247.00" routeLength="1519.31" waitingTime="100.00" waitingCount="3" stopTime="0.00" timeLoss="132.88" rerouteNo="0" devices="tripinfo_veh4" vType="passenger" speedFactor="1.02" vaporized=""/>
    <tripinfo id="veh45" depart="33.00" departLane="40304754#0_1" departPos="256.68" departSpeed="0.00" departDelay="0.15" arrival="256.00" arrivalLane="671642318#2_1" arrivalPos="31.59" arrivalSpeed="10.80" duration="223.00" routeLength="2262.25" waitingTime="0.00" waitingCount="0" stopTime="0.00" timeLoss="34.87" rerouteNo="0" devices="tripinfo_veh45" vType="motorcycle" speedFactor="0.90" vaporized=""/>
    <tripinfo id="veh154" depart="113.00" departLane="984521611#0_0" departPos="1.44" departSpeed="0.00" departDelay="0.58" arrival="257.00" arrivalLane="-859732803#0_0" arrivalPos="20.07" arrivalSpeed="4.36" duration="144.00" routeLength="1276.64" waitingTime="6.00" waitingCount="1" stopTime="0.00" timeLoss="27.61" rerouteNo="0" devices="tripinfo_veh154" vType="passenger" speedFactor="0.89" vaporized=""/>
    <tripinfo id="veh87" depart="64.00" departLane="-174818015_0" departPos="207.81" departSpeed="0.00" departDelay="0.49" arrival="260.00" arrivalLane="1136119743#1_1" arrivalPos="27.12" arrivalSpeed="7.42" duration="196.00" routeLength="1446.60" waitingTime="51.00" waitingCount="1" stopTime="0.00" timeLoss="73.20" rerouteNo="0" devices="tripinfo_veh87" vType="delivery" speedFactor="1.03" vaporized=""/>
    <tripinfo id="veh198" depart="145.00" departLane="-470210923#1_1" departPos="113.34" departSpeed="0.00" departDelay="0.46" arrival="263.00" arrivalLane="-43546449#1_1" arrivalPos="41.66" arrivalSpeed="15.24" duration="118.00" routeLength="1159.22" waitingTime="17.00" waitingCount="1" stopTime="0.00" timeLoss="41.06" rerouteNo="0" devices="tripinfo_veh198" vType="passenger" speedFactor="1.10" vaporized=""/>
    <tripinfo id="veh115" depart="84.00" departLane="-48736618_1" departPos="19.34" departSpeed="0.00" departDelay="0.05" arrival="265.00" arrivalLane="-48797765#1_1" arrivalPos="28.98" arrivalSpeed="12.23" duration="181.00" routeLength="1824.56" waitingTime="8.00" waitingCount="1" stopTime="0.00" timeLoss="57.35" rerouteNo="0" devices="tripinfo_veh115" vType="passenger" speedFactor="1.11" vaporized=""/>
    <tripinfo id="veh123" depart="90.00" departLane="-40314876_1" departPos="5.50" departSpeed="0.00" departDelay="0.21" arrival="267.00" arrivalLane="40295499#0_1" arrivalPos="60.93" arrivalSpeed="12.04" duration="177.00" routeLength="1989.36" waitingTime="6.00" waitingCount="1" stopTime="0.00" timeLoss="35.17" rerouteNo="0" devices="tripinfo_veh123" vType="motorcycle" speedFactor="1.04" vaporized=""/>
    <tripinfo id="veh218" depart="160.00" departLane="-984508804_0" departPos="15.74" departSpeed="0.00" departDelay="0.86" arrival="268.00" arrivalLane="48797773_1" arrivalPos="23.80" arrivalSpeed="12.30" duration="108.00" routeLength="1108.36" waitingTime="0.00" waitingCount="0" stopTime="0.00" timeLoss="19.60" rerouteNo="0" devices="tripinfo_veh218" vType="passenger" speedFactor="0.95" vaporized=""/>
    <tripinfo id="veh258" depart="189.00" departLane="48778457#1_1" departPos="3.85" departSpeed="0.00" departDelay="0.66" arrival="269.00" arrivalLane="-40236203#2_1" arrivalPos="10.99" arrivalSpeed="14.21" duration="80.00" routeLength="740.38" waitingTime="0.00" waitingCount="0" stopTime="0.00" timeLoss="22.47" rerouteNo="0" devices="tripinfo_veh258" vType="passenger" speedFactor="1.07" vaporized=""/>
    <tripinfo id="veh229" depart="168.00" departLane="1135856746#1_1" departPos="90.02" departSpeed="0.00" departDelay="0.83" arrival="270.00" arrivalLane="859728207_0" arrivalPos="18.62" arrivalSpeed="4.72" duration="102.00" routeLength="564.05" waitingTime="0.00" waitingCount="0" stopTime="0.00" timeLoss="15.04" rerouteNo="0" devices="tripinfo_veh229" vType="passenger" speedFactor="0.97" vaporized=""/>
    <tripinfo id="veh143" depart="105.00" departLane="-176279225#3_2" departPos="6.38" departSpeed="0.00" departDelay="0.61" arrival="271.00" arrivalLane="-422283114_0" arrivalPos="185.51" arrivalSpeed="4.92" duration="166.00" routeLength="663.83" waitingTime="69.00" waitingCount="3" stopTime="0.00" timeLoss="92.50" rerouteNo="0" devices="tripinfo_veh143" vType="passenger" speedFactor="0.96" vaporized=""/>
    <tripinfo id="veh275" depart="201.00" departLane="264868325_1" departPos="21.25" departSpeed="0.00" departDelay="0.25" arrival="273.00" arrivalLane="1136289989_1" arrivalPos="16.58" arrivalSpeed="7.27" duration="72.00" routeLength="730.45" waitingTime="0.00" waitingCount="0" stopTime="0.00" timeLoss="14.92" rerouteNo="0" devices="tripinfo_veh275" vType="passenger" speedFactor="1.02" vaporized=""/>
    <tripinfo id="veh112" depart="82.00" departLane="-40299739#2_1" departPos="42.03" departSpeed="0.00" departDelay="0.24" arrival="276.00" arrivalLane="992542694_0" arrivalPos="44.94" arrivalSpeed="4.54" duration="194.00" routeLength="2220.37" waitingTime="0.00" waitingCount="0" stopTime="0.00" timeLoss="24.94" rerouteNo="0" devices="tripinfo_veh112" vType="emergency" speedFactor="1.00" vaporized=""/>
    <tripinfo id="veh101" depart="74.00" departLane="-33909936#1_1" departPos="32.43" departSpeed="0.00" departDelay="0.27" arrival="279.00" arrivalLane="43544588#1_1" arrivalPos="38.30" arrivalSpeed="12.29" duration="205.00" routeLength="1925.81" waitingTime="0.00" waitingCount="0" stopTime="0.00" timeLoss="39.54" rerouteNo="0" devices="tripinfo_veh101" vType="passenger" speedFactor="0.89" vaporized=""/>
    <tripinfo id="veh215" depart="157.00" departLane="-40265774#0_2" departPos="40.65" departSpeed="0.00" departDelay="0.05" arrival="279.00" arrivalLane="647347140#1_1" arrivalPos="28.09" arrivalSpeed="11.72" duration="122.00" routeLength="1388.54" waitingTime="0.00" waitingCount="0" stopTime="0.00" timeLoss="29.32" rerouteNo="0" devices="tripinfo_veh215" vType="passenger" speedFactor="1.13" vaporized=""/>