<?xml version="1.0" encoding="UTF-8"?>

<!-- generated on 2025-06-12 11:04:18 by Eclipse SUMO sumo Version 1.22.0
<sumoConfiguration xmlns:xsi="http://www.w3.org/2001/XMLSchema-instance" xsi:noNamespaceSchemaLocation="http://sumo.dlr.de/xsd/sumoConfiguration.xsd">

    <input>
        <net-file value="E:/licenta/oras-mediu/2025-06-05-11-45-23/osm.net.xml"/>
        <route-files value="E:/licenta/oras-mediu/2025-06-05-11-45-23/full.rou.xml,E:/licenta/oras-mediu/2025-06-05-11-45-23/ ped.rou.xml,E:/licenta/oras-mediu/2025-06-05-11-45-23/ truck.rou.xml"/>
        <additional-files value="E:/licenta/oras-mediu/2025-06-05-11-45-23/osm.poly.xml,E:/licenta/oras-mediu/2025-06-05-11-45-23/ vtypes.xml"/>
    </input>

    <output>
        <summary-output value="E:/licenta/oras-mediu/2025-06-05-11-45-23/summary.xml"/>
        <tripinfo-output value="E:/licenta/oras-mediu/2025-06-05-11-45-23/tripinfo.xml"/>
    </output>

    <processing>
        <ignore-route-errors value="true"/>
        <tls.actuated.jam-threshold value="30"/>
    </processing>

    <routing>
        <device.rerouting.adaptation-steps value="18"/>
        <device.rerouting.adaptation-interval value="10"/>
    </routing>

    <report>
        <verbose value="true"/>
        <duration-log.statistics value="true"/>
        <no-step-log value="true"/>
    </report>

    <traci_server>
        <remote-port value="61966"/>
    </traci_server>

    <gui_only>
        <gui-settings-file value="E:/licenta/oras-mediu/2025-06-05-11-45-23/osm.view.xml"/>
    </gui_only>

</sumoConfiguration>
-->

<tripinfos xmlns:xsi="http://www.w3.org/2001/XMLSchema-instance" xsi:noNamespaceSchemaLocation="http://sumo.dlr.de/xsd/tripinfo_file.xsd">
    <tripinfo id="veh9" depart="7.00" departLane="945793490#3_1" departPos="2.04" departSpeed="0.00" departDelay="0.43" arrival="39.00" arrivalLane="1250915720#1_1" arrivalPos="5.08" arrivalSpeed="5.74" duration="32.00" routeLength="168.16" waitingTime="0.00" waitingCount="0" stopTime="0.00" timeLoss="4.44" rerouteNo="0" devices="tripinfo_veh9" vType="passenger" speedFactor="1.12" vaporized=""/>
    <tripinfo id="veh15" depart="11.00" departLane="43544197#6_1" departPos="12.31" departSpeed="0.00" departDelay="0.05" arrival="73.00" arrivalLane="43544001#11_1" arrivalPos="49.45" arrivalSpeed="13.12" duration="62.00" routeLength="632.75" waitingTime="0.00" waitingCount="0" stopTime="0.00" timeLoss="14.79" rerouteNo="0" devices="tripinfo_veh15" vType="passenger" speedFactor="1.02" vaporized=""/>
    <tripinfo id="veh58" depart="43.00" departLane="401741889#1_1" departPos="11.74" departSpeed="0.00" departDelay="0.66" arrival="88.00" arrivalLane="43546570#1_1" arrivalPos="76.67" arrivalSpeed="14.44" duration="45.00" routeLength="488.76" waitingTime="0.00" waitingCount="0" stopTime="0.00" timeLoss="11.08" rerouteNo="0" devices="tripinfo_veh58" vType="passenger" speedFactor="1.12" vaporized=""/>
    <tripinfo id="veh42" depart="31.00" departLane="48778431#2_2" departPos="61.68" departSpeed="0.00" departDelay="0.34" arrival="92.00" arrivalLane="48778511_1" arrivalPos="75.86" arrivalSpeed="14.13" duration="61.00" routeLength="627.19" waitingTime="0.00" waitingCount="0" stopTime="0.00" timeLoss="14.10" rerouteNo="0" devices="tripinfo_veh42" vType="passenger" speedFactor="1.05" vaporized=""/>
    <tripinfo id="veh96" depart="71.00" departLane="530103975#0_1" departPos="42.47" departSpeed="0.00" departDelay="0.92" arrival="109.00" arrivalLane="48778456#0_1" arrivalPos="27.19" arrivalSpeed="10.92" duration="38.00" routeLength="299.21" waitingTime="0.00" waitingCount="0" stopTime="0.00" timeLoss="12.84" rerouteNo="0" devices="tripinfo_veh96" vType="motorcycle" speedFactor="0.98" vaporized=""/>
    <tripinfo id="veh52" depart="38.00" departLane="383582506_0" departPos="32.99" departSpeed="0.00" departDelay="0.04" arrival="110.00" arrivalLane="-43544001#7_1" arrivalPos="45.62" arrivalSpeed="13.15" duration="72.00" routeLength="717.31" waitingTime="0.00" waitingCount="0" stopTime="0.00" timeLoss="11.47" rerouteNo="0" devices="tripinfo_veh52" vType="passenger" speedFactor="0.96" vaporized=""/>
    <tripinfo id="veh72" depart="53.00" departLane="43546519#0_1" departPos="405.37" departSpeed="0.00" departDelay="0.44" arrival="124.00" arrivalLane="E12_1" arrivalPos="184.12" arrivalSpeed="13.91" duration="71.00" routeLength="819.38" waitingTime="0.00" waitingCount="0" stopTime="0.00" timeLoss="12.95" rerouteNo="0" devices="tripinfo_veh72" vType="passenger" speedFactor="1.05" vaporized=""/>
    <tripinfo id="veh78" depart="57.00" departLane="48788485#4_1" departPos="198.13" departSpeed="0.00" departDelay="0.06" arrival="128.00" arrivalLane="-143207979#4_1" arrivalPos="45.53" arrivalSpeed="14.96" duration="71.00" routeLength="821.62" waitingTime="0.00" waitingCount="0" stopTime="0.00" timeLoss="14.02" rerouteNo="0" devices="tripinfo_veh78" vType="passenger" speedFactor="1.10" vaporized=""/>
    <tripinfo id="veh94" depart="69.00" departLane="-40236228#0_1" departPos="51.79" departSpeed="0.00" departDelay="0.38" arrival="139.00" arrivalLane="40265775#1_1" arrivalPos="76.38" arrivalSpeed="12.70" duration="70.00" routeLength="733.03" waitingTime="0.00" waitingCount="0" stopTime="0.00" timeLoss="12.62" rerouteNo="0" devices="tripinfo_veh94" vType="passenger" speedFactor="0.99" vaporized=""/>
    <tripinfo id="veh64" depart="47.00" departLane="48778508#4_1" departPos="23.72" departSpeed="0.00" departDelay="0.28" arrival="143.00" arrivalLane="-43544179#10_1" arrivalPos="22.73" arrivalSpeed="9.47" duration="96.00" routeLength="989.67" waitingTime="0.00" waitingCount="0" stopTime="0.00" timeLoss="14.27" rerouteNo="0" devices="tripinfo_veh64" vType="passenger" speedFactor="0.90" vaporized=""/>
    <tripinfo id="veh150" depart="110.00" departLane="-48736655_1" departPos="15.12" departSpeed="0.00" departDelay="0.50" arrival="156.00" arrivalLane="-48736625_1" arrivalPos="44.40" arrivalSpeed="6.34" duration="46.00" routeLength="365.71" waitingTime="0.00" waitingCount="0" stopTime="0.00" timeLoss="11.22" rerouteNo="0" devices="tripinfo_veh150" vType="passenger" speedFactor="0.91" vaporized=""/>
    <tripinfo id="veh49" depart="36.00" departLane="-43546105#0_1" departPos="187.19" departSpeed="0.00" departDelay="0.23" arrival="165.00" arrivalLane="-E12_1" arrivalPos="17.16" arrivalSpeed="14.70" duration="129.00" routeLength="1565.39" waitingTime="0.00" waitingCount="0" stopTime="0.00" timeLoss="24.77" rerouteNo="0" devices="tripinfo_veh49" vType="passenger" speedFactor="1.12" vaporized=""/>
    <personinfo id="ped4" depart="20.00" type="DEFAULT_PEDTYPE" speedFactor="1.16" duration="146.00" waitingTime="0.00" timeLoss="14.69" traveltime="146.00">
        <walk depart="20.00" departPos="0.00" arrival="166.00" arrivalPos="30.91" duration="146.00" routeLength="211.94" timeLoss="14.69" maxSpeed="1.61"/>
    </personinfo>
    <tripinfo id="veh73" depart="54.00" departLane="1136119744_1" departPos="7.41" departSpeed="0.00" departDelay="0.71" arrival="174.00" arrivalLane="273835688_1" arrivalPos="176.77" arrivalSpeed="14.48" duration="120.00" routeLength="1300.30" waitingTime="0.00" waitingCount="0" stopTime="0.00" timeLoss="19.47" rerouteNo="0" devices="tripinfo_veh73" vType="passenger" speedFactor="1.06" vaporized=""/>
    <tripinfo id="veh157" depart="115.00" departLane="43544001#2_1" departPos="10.92" departSpeed="0.00" departDelay="0.39" arrival="176.00" arrivalLane="43544624#1_1" arrivalPos="93.66" arrivalSpeed="12.98" duration="61.00" routeLength="622.63" waitingTime="0.00" waitingCount="0" stopTime="0.00" timeLoss="12.90" rerouteNo="0" devices="tripinfo_veh157" vType="passenger" speedFactor="1.00" vaporized=""/>
    <tripinfo id="veh69" depart="51.00" departLane="-40304754#1_1" departPos="74.53" departSpeed="0.00" departDelay="0.63" arrival="177.00" arrivalLane="-222608881#1_1" arrivalPos="39.96" arrivalSpeed="13.67" duration="126.00" routeLength="1467.01" waitingTime="0.00" waitingCount="0" stopTime="0.00" timeLoss="18.42" rerouteNo="0" devices="tripinfo_veh69" vType="passenger" speedFactor="1.01" vaporized=""/>
    <tripinfo id="veh79" depart="58.00" departLane="-48778508#2_1" departPos="0.50" departSpeed="0.00" departDelay="0.33" arrival="180.00" arrivalLane="945793490#1_1" arrivalPos="16.18" arrivalSpeed="4.72" duration="122.00" routeLength="1119.54" waitingTime="0.00" waitingCount="0" stopTime="0.00" timeLoss="16.28" rerouteNo="0" devices="tripinfo_veh79" vType="emergency" speedFactor="1.00" vaporized=""/>
    <tripinfo id="veh104" depart="76.00" departLane="48778494#0_1" departPos="28.50" departSpeed="0.00" departDelay="0.08" arrival="181.00" arrivalLane="1250915724#0_1" arrivalPos="12.38" arrivalSpeed="3.13" duration="105.00" routeLength="1001.02" waitingTime="0.00" waitingCount="0" stopTime="0.00" timeLoss="22.37" rerouteNo="0" devices="tripinfo_veh104" vType="motorcycle" speedFactor="1.10" vaporized=""/>
    <tripinfo id="veh120" depart="88.00" departLane="43546039#3_1" departPos="44.03" departSpeed="0.00" departDelay="0.40" arrival="181.00" arrivalLane="-43544001#13_1" arrivalPos="78.45" arrivalSpeed="13.37" duration="93.00" routeLength="1080.49" waitingTime="0.00" waitingCount="0" stopTime="0.00" timeLoss="9.73" rerouteNo="0" devices="tripinfo_veh120" vType="passenger" speedFactor="0.97" vaporized=""/>
    <tripinfo id="veh14" depart="11.00" departLane="1205541342_1" departPos="0.72" departSpeed="0.00" departDelay="0.78" arrival="182.00" arrivalLane="-43544138#4_1" arrivalPos="45.15" arrivalSpeed="13.04" duration="171.00" routeLength="1943.16" waitingTime="0.00" waitingCount="0" stopTime="0.00" timeLoss="21.27" rerouteNo="0" devices="tripinfo_veh14" vType="emergency" speedFactor="1.00" vaporized=""/>
    <tripinfo id="veh10" depart="8.00" departLane="-40299739#3_1" departPos="63.12" departSpeed="0.00" departDelay="0.70" arrival="184.00" arrivalLane="-43546648#2_1" arrivalPos="81.52" arrivalSpeed="11.77" duration="176.00" routeLength="1445.43" waitingTime="20.00" waitingCount="1" stopTime="0.00" timeLoss="53.61" rerouteNo="0" devices="tripinfo_veh10" vType="passenger" speedFactor="0.90" vaporized=""/>
    <tripinfo id="veh29" depart="22.00" departLane="-43544197#2_1" departPos="16.52" departSpeed="0.00" departDelay="0.83" arrival="187.00" arrivalLane="-43544179#12_1" arrivalPos="77.06" arrivalSpeed="12.55" duration="165.00" routeLength="1063.91" waitingTime="70.00" waitingCount="1" stopTime="0.00" timeLoss="87.04" rerouteNo="0" devices="tripinfo_veh29" vType="motorcycle" speedFactor="1.02" vaporized=""/>
    <tripinfo id="veh20" depart="15.00" departLane="-250295384_1" departPos="11.05" departSpeed="0.00" departDelay="0.40" arrival="190.00" arrivalLane="43546039#2_1" arrivalPos="275.65" arrivalSpeed="13.43" duration="175.00" routeLength="2026.09" waitingTime="0.00" waitingCount="0" stopTime="0.00" timeLoss="29.06" rerouteNo="0" devices="tripinfo_veh20" vType="passenger" speedFactor="1.03" vaporized=""/>
    <tripinfo id="veh108" depart="79.00" departLane="289113877#1_1" departPos="104.86" departSpeed="0.00" departDelay="0.16" arrival="195.00" arrivalLane="-43547256#1_1" arrivalPos="152.01" arrivalSpeed="13.78" duration="116.00" routeLength="1382.15" waitingTime="0.00" waitingCount="0" stopTime="0.00" timeLoss="16.93" rerouteNo="0" devices="tripinfo_veh108" vType="passenger" speedFactor="1.04" vaporized=""/>
    <tripinfo id="veh123" depart="90.00" departLane="-43546343#0_1" departPos="115.34" departSpeed="0.00" departDelay="0.21" arrival="198.00" arrivalLane="-48736650#2_1" arrivalPos="16.21" arrivalSpeed="12.37" duration="108.00" routeLength="1359.87" waitingTime="0.00" waitingCount="0" stopTime="0.00" timeLoss="13.12" rerouteNo="0" devices="tripinfo_veh123" vType="passenger" speedFactor="1.07" vaporized=""/>
    <tripinfo id="veh71" depart="52.00" departLane="647262856_1" departPos="135.52" departSpeed="0.00" departDelay="0.17" arrival="200.00" arrivalLane="-354259933#3_1" arrivalPos="60.32" arrivalSpeed="10.86" duration="148.00" routeLength="1413.16" waitingTime="0.00" waitingCount="0" stopTime="0.00" timeLoss="19.88" rerouteNo="0" devices="tripinfo_veh71" vType="passenger" speedFactor="0.83" vaporized=""/>
    <tripinfo id="veh100" depart="73.00" departLane="43546789#0_1" departPos="12.55" departSpeed="0.00" departDelay="0.00" arrival="202.00" arrivalLane="223942064#2_0" arrivalPos="10.18" arrivalSpeed="10.59" duration="129.00" routeLength="1184.86" waitingTime="0.00" waitingCount="0" stopTime="0.00" timeLoss="16.66" rerouteNo="0" devices="tripinfo_veh100" vType="passenger" speedFactor="0.89" vaporized=""/>
    <tripinfo id="veh12" depart="9.00" departLane="48736610#0_1" departPos="42.21" departSpeed="0.00" departDelay="0.24" arrival="203.00" arrivalLane="-1251292611_1" arrivalPos="3.48" arrivalSpeed="5.63" duration="194.00" routeLength="1724.50" waitingTime="15.00" waitingCount="2" stopTime="0.00" timeLoss="49.62" rerouteNo="0" devices="tripinfo_veh12" vType="passenger" speedFactor="1.04" vaporized=""/>
    <tripinfo id="veh63" depart="46.00" departLane="-1251292611_1" departPos="3.14" departSpeed="0.00" departDelay="0.01" arrival="210.00" arrivalLane="43573573#2_1" arrivalPos="202.87" arrivalSpeed="14.62" duration="164.00" routeLength="1563.19" waitingTime="12.00" waitingCount="1" stopTime="0.00" timeLoss="39.07" rerouteNo="0" devices="tripinfo_veh63" vType="passenger" speedFactor="1.09" vaporized=""/>
    <tripinfo id="veh126" depart="92.00" departLane="48778499#0_1" departPos="6.95" departSpeed="0.00" departDelay="0.02" arrival="210.00" arrivalLane="40236220#0_1" arrivalPos="34.75" arrivalSpeed="12.54" duration="118.00" routeLength="944.15" waitingTime="18.00" waitingCount="2" stopTime="0.00" timeLoss="45.45" rerouteNo="0" devices="tripinfo_veh126" vType="motorcycle" speedFactor="1.01" vaporized=""/>
    <tripinfo id="veh138" depart="101.00" departLane="-92198453#3_1" departPos="0.04" departSpeed="0.00" departDelay="0.26" arrival="210.00" arrivalLane="671642315_1" arrivalPos="17.80" arrivalSpeed="8.62" duration="109.00" routeLength="1223.53" waitingTime="0.00" waitingCount="0" stopTime="0.00" timeLoss="9.78" rerouteNo="0" devices="tripinfo_veh138" vType="passenger" speedFactor="0.90" vaporized=""/>
    <tripinfo id="veh27" depart="20.00" departLane="-222609002#4_1" departPos="10.84" departSpeed="0.00" departDelay="0.29" arrival="211.00" arrivalLane="-43546449#1_1" arrivalPos="41.66" arrivalSpeed="13.37" duration="191.00" routeLength="2280.51" waitingTime="0.00" waitingCount="0" stopTime="0.00" timeLoss="20.65" rerouteNo="0" devices="tripinfo_veh27" vType="passenger" speedFactor="0.97" vaporized=""/>
    <tripinfo id="veh116" depart="85.00" departLane="-43544138#2_1" departPos="0.08" departSpeed="0.00" departDelay="0.32" arrival="214.00" arrivalLane="-48778485#0_1" arrivalPos="25.13" arrivalSpeed="10.96" duration="129.00" routeLength="1481.46" waitingTime="0.00" waitingCount="0" stopTime="0.00" timeLoss="19.79" rerouteNo="0" devices="tripinfo_veh116" vType="delivery" speedFactor="1.01" vaporized=""/>
    <tripinfo id="veh224" depart="164.00" departLane="-258551321_1" departPos="29.43" departSpeed="0.00" departDelay="0.48" arrival="215.00" arrivalLane="40305706#0_1" arrivalPos="32.26" arrivalSpeed="11.62" duration="51.00" routeLength="493.94" waitingTime="0.00" waitingCount="0" stopTime="0.00" timeLoss="11.62" rerouteNo="0" devices="tripinfo_veh224" vType="motorcycle" speedFactor="0.96" vaporized=""/>
    <tripinfo id="veh206" depart="151.00" departLane="40314583#5_1" departPos="4.05" departSpeed="0.00" departDelay="0.62" arrival="216.00" arrivalLane="-48736614#1_1" arrivalPos="221.38" arrivalSpeed="12.20" duration="65.00" routeLength="625.58" waitingTime="0.00" waitingCount="0" stopTime="0.00" timeLoss="13.14" rerouteNo="0" devices="tripinfo_veh206" vType="passenger" speedFactor="0.93" vaporized=""/>
    <tripinfo id="veh172" depart="126.00" departLane="-E10_1" departPos="42.65" departSpeed="0.00" departDelay="0.44" arrival="217.00" arrivalLane="48797773_1" arrivalPos="23.80" arrivalSpeed="13.45" duration="91.00" routeLength="921.16" waitingTime="0.00" waitingCount="0" stopTime="0.00" timeLoss="20.62" rerouteNo="0" devices="tripinfo_veh172" vType="delivery" speedFactor="1.03" vaporized=""/>
    <tripinfo id="veh0" depart="0.00" departLane="-1250915720#0_1" departPos="2.39" departSpeed="0.00" departDelay="0.00" arrival="220.00" arrivalLane="43544179#7_1" arrivalPos="45.61" arrivalSpeed="11.87" duration="220.00" routeLength="1950.45" waitingTime="17.00" waitingCount="1" stopTime="0.00" timeLoss="58.54" rerouteNo="0" devices="tripinfo_veh0" vType="motorcycle" speedFactor="0.98" vaporized=""/>
    <tripinfo id="veh22" depart="17.00" departLane="48736644_1" departPos="87.74" departSpeed="0.00" departDelay="0.94" arrival="221.00" arrivalLane="43544624#3_1" arrivalPos="179.18" arrivalSpeed="15.44" duration="204.00" routeLength="2741.17" waitingTime="0.00" waitingCount="0" stopTime="0.00" timeLoss="26.59" rerouteNo="0" devices="tripinfo_veh22" vType="passenger" speedFactor="1.13" vaporized=""/>
    <tripinfo id="veh35" depart="26.00" departLane="-40295499#4_1" departPos="277.56" departSpeed="0.00" departDelay="0.45" arrival="221.00" arrivalLane="48736612#4_1" arrivalPos="2.25" arrivalSpeed="13.22" duration="195.00" routeLength="1604.10" waitingTime="63.00" waitingCount="1" stopTime="0.00" timeLoss="81.93" rerouteNo="0" devices="tripinfo_veh35" vType="passenger" speedFactor="1.04" vaporized=""/>
    <tripinfo id="veh105" depart="77.00" departLane="-984513295_0" departPos="19.24" departSpeed="0.00" departDelay="0.35" arrival="223.00" arrivalLane="-48736642_1" arrivalPos="106.82" arrivalSpeed="13.86" duration="146.00" routeLength="1486.09" waitingTime="6.00" waitingCount="1" stopTime="0.00" timeLoss="35.25" rerouteNo="0" devices="tripinfo_veh105" vType="passenger" speedFactor="1.03" vaporized=""/>
    <tripinfo id="veh174" depart="128.00" departLane="43573573#3_1" departPos="3.47" departSpeed="0.00" departDelay="0.98" arrival="223.00" arrivalLane="43547017#0_1" arrivalPos="89.49" arrivalSpeed="14.98" duration="95.00" routeLength="1035.21" waitingTime="5.00" waitingCount="1" stopTime="0.00" timeLoss="28.37" rerouteNo="0" devices="tripinfo_veh174" vType="passenger" speedFactor="1.17" vaporized=""/>
    <personinfo id="ped25" depart="125.00" type="DEFAULT_PEDTYPE" speedFactor="1.06" duration="100.00" waitingTime="0.00" timeLoss="21.31" traveltime="100.00">
        <walk depart="125.00" departPos="0.00" arrival="225.00" arrivalPos="46.44" duration="100.00" routeLength="116.09" timeLoss="21.31" maxSpeed="1.48"/>
    </personinfo>
    <tripinfo id="veh48" depart="36.00" departLane="-996489799#1_0" departPos="12.57" departSpeed="0.00" departDelay="0.96" arrival="228.00" arrivalLane="671642318#1_1" arrivalPos="42.40" arrivalSpeed="13.25" duration="192.00" routeLength="2139.46" waitingTime="0.00" waitingCount="0" stopTime="0.00" timeLoss="25.70" rerouteNo="0" devices="tripinfo_veh48" vType="passenger" speedFactor="1.00" vaporized=""/>
    <tripinfo id="veh51" depart="38.00" departLane="48778480#7_2" departPos="205.12" departSpeed="0.00" departDelay="0.77" arrival="231.00" arrivalLane="-48778508#2_1" arrivalPos="0.58" arrivalSpeed="13.42" duration="193.00" routeLength="2359.84" waitingTime="0.00" waitingCount="0" stopTime="0.00" timeLoss="18.95" rerouteNo="0" devices="tripinfo_veh51" vType="delivery" speedFactor="0.99" vaporized=""/>
    <tripinfo id="veh169" depart="124.00" departLane="-222609002#3_1" departPos="6.76" departSpeed="0.00" departDelay="0.63" arrival="231.00" arrivalLane="258551283#1_1" arrivalPos="55.98" arrivalSpeed="11.66" duration="107.00" routeLength="1182.60" waitingTime="0.00" waitingCount="0" stopTime="0.00" timeLoss="18.53" rerouteNo="0" devices="tripinfo_veh169" vType="motorcycle" speedFactor="1.00" vaporized=""/>
    <tripinfo id="veh109" depart="80.00" departLane="40304754#0_1" departPos="190.75" departSpeed="0.00" departDelay="0.43" arrival="232.00" arrivalLane="-43546064#0_1" arrivalPos="168.39" arrivalSpeed="14.13" duration="152.00" routeLength="1624.72" waitingTime="2.00" waitingCount="1" stopTime="0.00" timeLoss="33.57" rerouteNo="0" devices="tripinfo_veh109" vType="motorcycle" speedFactor="1.04" vaporized=""/>
    <tripinfo id="veh17" depart="13.00" departLane="945793490#5_1" departPos="14.65" departSpeed="0.00" departDelay="0.59" arrival="234.00" arrivalLane="48778519_1" arrivalPos="91.88" arrivalSpeed="12.21" duration="221.00" routeLength="1843.87" waitingTime="16.00" waitingCount="2" stopTime="0.00" timeLoss="42.29" rerouteNo="0" devices="tripinfo_veh17" vType="passenger" speedFactor="0.89" vaporized=""/>
    <tripinfo id="veh193" depart="142.00" departLane="40265778#0_1" departPos="60.04" departSpeed="0.00" departDelay="1.11" arrival="234.00" arrivalLane="-43546789#1_1" arrivalPos="47.64" arrivalSpeed="14.70" duration="92.00" routeLength="744.23" waitingTime="24.00" waitingCount="1" stopTime="0.00" timeLoss="39.93" rerouteNo="0" devices="tripinfo_veh193" vType="delivery" speedFactor="1.08" vaporized=""/>
    <tripinfo id="veh300" depart="219.00" departLane="222605089#1_1" departPos="42.51" departSpeed="0.00" departDelay="0.00" arrival="234.00" arrivalLane="648082196_1" arrivalPos="93.22" arrivalSpeed="13.57" duration="15.00" routeLength="128.47" waitingTime="0.00" waitingCount="0" stopTime="0.00" timeLoss="4.37" rerouteNo="0" devices="tripinfo_veh300" vType="emergency" speedFactor="1.00" vaporized=""/>
    <tripinfo id="veh36" depart="27.00" departLane="-945793486#1_0" departPos="20.04" departSpeed="0.00" departDelay="0.72" arrival="235.00" arrivalLane="-48778517#0_1" arrivalPos="43.62" arrivalSpeed="8.21" duration="208.00" routeLength="2218.70" waitingTime="1.00" waitingCount="1" stopTime="0.00" timeLoss="33.03" rerouteNo="0" devices="tripinfo_veh36" vType="emergency" speedFactor="1.00" vaporized=""/>
    <tripinfo id="veh164" depart="120.00" departLane="48797771#2_1" departPos="18.18" departSpeed="0.00" departDelay="0.28" arrival="235.00" arrivalLane="48778456#0_1" arrivalPos="27.19" arrivalSpeed="12.08" duration="115.00" routeLength="240.36" waitingTime="85.00" waitingCount="1" stopTime="0.00" timeLoss="95.88" rerouteNo="0" devices="tripinfo_veh164" vType="passenger" speedFactor="1.03" vaporized=""/>
    <tripinfo id="veh162" depart="119.00" departLane="-647998062_1" departPos="36.78" departSpeed="0.00" departDelay="0.74" arrival="239.00" arrivalLane="-43544184#2_1" arrivalPos="44.27" arrivalSpeed="12.02" duration="120.00" routeLength="1181.53" waitingTime="0.00" waitingCount="0" stopTime="0.00" timeLoss="18.02" rerouteNo="0" devices="tripinfo_veh162" vType="passenger" speedFactor="0.87" vaporized=""/>
    <tripinfo id="veh23" depart="17.00" departLane="43546460#6_1" departPos="2.75" departSpeed="0.00" departDelay="0.21" arrival="240.00" arrivalLane="-48778493#1_1" arrivalPos="26.41" arrivalSpeed="11.72" duration="223.00" routeLength="2197.70" waitingTime="8.00" waitingCount="1" stopTime="0.00" timeLoss="35.70" rerouteNo="0" devices="tripinfo_veh23" vType="passenger" speedFactor="0.89" vaporized=""/>
    <tripinfo id="veh89" depart="65.00" departLane="-48736612#1_1" departPos="23.65" departSpeed="0.00" departDelay="0.03" arrival="240.00" arrivalLane="-40330557#2_1" arrivalPos="99.94" arrivalSpeed="13.63" duration="175.00" routeLength="2104.18" waitingTime="0.00" waitingCount="0" stopTime="0.00" timeLoss="23.40" rerouteNo="0" devices="tripinfo_veh89" vType="delivery" speedFactor="1.01" vaporized=""/>
    <tripinfo id="veh106" depart="78.00" departLane="48736613#3_1" departPos="37.88" departSpeed="0.00" departDelay="0.62" arrival="241.00" arrivalLane="143207982#4_1" arrivalPos="17.42" arrivalSpeed="9.23" duration="163.00" routeLength="1414.66" waitingTime="10.00" waitingCount="1" stopTime="0.00" timeLoss="38.22" rerouteNo="0" devices="tripinfo_veh106" vType="motorcycle" speedFactor="0.84" vaporized=""/>
    <tripinfo id="veh66" depart="49.00" departLane="143207979#8_1" departPos="10.09" departSpeed="0.00" departDelay="0.82" arrival="243.00" arrivalLane="222605084#4_1" arrivalPos="16.56" arrivalSpeed="5.99" duration="194.00" routeLength="2025.43" waitingTime="10.00" waitingCount="1" stopTime="0.00" timeLoss="38.25" rerouteNo="0" devices="tripinfo_veh66" vType="passenger" speedFactor="1.08" vaporized=""/>
    <tripinfo id="veh134" depart="98.00" departLane="48778489#0_2" departPos="221.92" departSpeed="0.00" departDelay="0.18" arrival="243.00" arrivalLane="1136289990_1" arrivalPos="14.40" arrivalSpeed="4.99" duration="145.00" routeLength="1305.32" waitingTime="12.00" waitingCount="1" stopTime="0.00" timeLoss="35.81" rerouteNo="0" devices="tripinfo_veh134" vType="motorcycle" speedFactor="0.91" vaporized=""/>
    <tripinfo id="veh218" depart="160.00" departLane="48778443#0_1" departPos="1.52" departSpeed="0.00" departDelay="0.86" arrival="243.00" arrivalLane="-40266620_1" arrivalPos="32.50" arrivalSpeed="12.38" duration="83.00" routeLength="740.89" waitingTime="0.00" waitingCount="0" stopTime="0.00" timeLoss="20.01" rerouteNo="0" devices="tripinfo_veh218" vType="passenger" speedFactor="0.95" vaporized=""/>
    <tripinfo id="veh18" depart="14.00" departLane="33913538#7_1" departPos="31.44" departSpeed="0.00" departDelay="0.86" arrival="246.00" arrivalLane="40265778#0_2" arrivalPos="145.00" arrivalSpeed="13.73" duration="232.00" routeLength="2617.10" waitingTime="11.00" waitingCount="1" stopTime="0.00" timeLoss="41.81" rerouteNo="0" devices="tripinfo_veh18" vType="passenger" speedFactor="1.01" vaporized=""/>
    <tripinfo id="veh40" depart="30.00" departLane="143207979#4_1" departPos="43.02" departSpeed="0.00" departDelay="0.80" arrival="246.00" arrivalLane="40266908#1_1" arrivalPos="55.60" arrivalSpeed="14.17" duration="216.00" routeLength="2174.21" waitingTime="22.00" waitingCount="1" stopTime="0.00" timeLoss="63.29" rerouteNo="0" devices="tripinfo_veh40" vType="passenger" speedFactor="1.06" vaporized=""/>
    <tripinfo id="veh208" depart="152.00" departLane="-48778453_1" departPos="6.61" departSpeed="0.00" departDelay="0.16" arrival="247.00" arrivalLane="40266621_1" arrivalPos="38.01" arrivalSpeed="13.34" duration="95.00" routeLength="929.59" waitingTime="3.00" waitingCount="1" stopTime="0.00" timeLoss="23.29" rerouteNo="0" devices="tripinfo_veh208" vType="passenger" speedFactor="0.98" vaporized=""/>
    <tripinfo id="veh99" depart="73.00" departLane="-43544001#6_1" departPos="15.69" departSpeed="0.00" departDelay="0.73" arrival="248.00" arrivalLane="-43547296#0_1" arrivalPos="163.38" arrivalSpeed="13.74" duration="175.00" routeLength="2051.81" waitingTime="2.00" waitingCount="1" stopTime="0.00" timeLoss="26.51" rerouteNo="0" devices="tripinfo_veh99" vType="passenger" speedFactor="1.02" vaporized=""/>
    <personinfo id="ped6" depart="30.00" type="DEFAULT_PEDTYPE" speedFactor="0.91" duration="219.00" waitingTime="0.00" timeLoss="60.20" traveltime="219.00">
        <walk depart="30.00" departPos="0.00" arrival="249.00" arrivalPos="28.41" duration="219.00" routeLength="200.40" timeLoss="60.20" maxSpeed="1.26"/>
    </personinfo>
    <tripinfo id="veh26" depart="19.00" departLane="43546449#2_1" departPos="49.49" departSpeed="0.00" departDelay="0.02" arrival="250.00" arrivalLane="578560104#4_1" arrivalPos="13.09" arrivalSpeed="13.63" duration="231.00" routeLength="1677.91" waitingTime="73.00" waitingCount="1" stopTime="0.00" timeLoss="106.19" rerouteNo="0" devices="tripinfo_veh26" vType="passenger" speedFactor="0.99" vaporized=""/>
    <tripinfo id="veh113" depart="83.00" departLane="43544179#6_1" departPos="24.72" departSpeed="0.00" departDelay="0.51" arrival="250.00" arrivalLane="-43546648#2_1" arrivalPos="81.52" arrivalSpeed="14.03" duration="167.00" routeLength="1838.31" waitingTime="0.00" waitingCount="0" stopTime="0.00" timeLoss="31.27" rerouteNo="0" devices="tripinfo_veh113" vType="passenger" speedFactor="1.02" vaporized=""/>
    <personinfo id="ped34" depart="170.00" type="DEFAULT_PEDTYPE" speedFactor="1.05" duration="81.00" waitingTime="0.00" timeLoss="7.99" traveltime="81.00">
        <walk depart="170.00" departPos="0.00" arrival="251.00" arrivalPos="96.05" duration="81.00" routeLength="106.44" timeLoss="7.99" maxSpeed="1.46"/>
    </personinfo>
    <tripinfo id="veh262" depart="192.00" departLane="-48797773_1" departPos="6.37" departSpeed="0.00" departDelay="0.74" arrival="251.00" arrivalLane="40266620_1" arrivalPos="32.51" arrivalSpeed="13.01" duration="59.00" routeLength="551.92" waitingTime="0.00" waitingCount="0" stopTime="0.00" timeLoss="19.62" rerouteNo="0" devices="tripinfo_veh262" vType="passenger" speedFactor="1.13" vaporized=""/>
    <tripinfo id="veh88" depart="65.00" departLane="33913538#5_1" departPos="0.49" departSpeed="0.00" departDelay="0.76" arrival="253.00" arrivalLane="48778494#1_1" arrivalPos="15.92" arrivalSpeed="11.76" duration="188.00" routeLength="1888.10" waitingTime="2.00" waitingCount="1" stopTime="0.00" timeLoss="27.99" rerouteNo="0" devices="tripinfo_veh88" vType="passenger" speedFactor="0.87" vaporized=""/>
    <tripinfo id="veh2" depart="2.00" departLane="-43547579#4_1" departPos="123.65" departSpeed="0.00" departDelay="0.54" arrival="254.00" arrivalLane="43544184#2_1" arrivalPos="44.28" arrivalSpeed="14.43" duration="252.00" routeLength="3146.44" waitingTime="0.00" waitingCount="0" stopTime="0.00" timeLoss="37.22" rerouteNo="0" devices="tripinfo_veh2" vType="passenger" speedFactor="1.08" vaporized=""/>
    <tripinfo id="veh101" depart="74.00" departLane="383582513_0" departPos="20.86" departSpeed="0.00" departDelay="0.27" arrival="261.00" arrivalLane="258551317_1" arrivalPos="85.97" arrivalSpeed="13.34" duration="187.00" routeLength="1586.30" waitingTime="34.00" waitingCount="2" stopTime="0.00" timeLoss="67.99" rerouteNo="0" devices="tripinfo_veh101" vType="passenger" speedFactor="1.03" vaporized=""/>