<?xml version="1.0" encoding="UTF-8"?>

<!-- generated on 2025-06-12 11:49:28 by Eclipse SUMO sumo Version 1.22.0
<sumoConfiguration xmlns:xsi="http://www.w3.org/2001/XMLSchema-instance" xsi:noNamespaceSchemaLocation="http://sumo.dlr.de/xsd/sumoConfiguration.xsd">

    <input>
        <net-file value="E:/licenta/oras-mediu/2025-06-05-11-45-23/osm.net.xml"/>
        <route-files value="E:/licenta/oras-mediu/2025-06-05-11-45-23/full.rou.xml,E:/licenta/oras-mediu/2025-06-05-11-45-23/ ped.rou.xml,E:/licenta/oras-mediu/2025-06-05-11-45-23/ truck.rou.xml"/>
        <additional-files value="E:/licenta/oras-mediu/2025-06-05-11-45-23/osm.poly.xml,E:/licenta/oras-mediu/2025-06-05-11-45-23/ vtypes.xml"/>
    </input>

    <output>
        <summary-output value="E:/licenta/oras-mediu/2025-06-05-11-45-23/summary.xml"/>
        <tripinfo-output value="E:/licenta/oras-mediu/2025-06-05-11-45-23/tripinfo.xml"/>
    </output>

    <processing>
        <ignore-route-errors value="true"/>
        <tls.actuated.jam-threshold value="30"/>
    </processing>

    <routing>
        <device.rerouting.adaptation-steps value="18"/>
        <device.rerouting.adaptation-interval value="10"/>
    </routing>

    <report>
        <verbose value="true"/>
        <duration-log.statistics value="true"/>
        <no-step-log value="true"/>
    </report>

    <traci_server>
        <remote-port value="63391"/>
    </traci_server>

    <gui_only>
        <gui-settings-file value="E:/licenta/oras-mediu/2025-06-05-11-45-23/osm.view.xml"/>
    </gui_only>

</sumoConfiguration>
-->

<tripinfos xmlns:xsi="http://www.w3.org/2001/XMLSchema-instance" xsi:noNamespaceSchemaLocation="http://sumo.dlr.de/xsd/tripinfo_file.xsd">
    <tripinfo id="veh65" depart="40.00" departLane="1135772296#0_0" departPos="12.71" departSpeed="0.00" departDelay="0.35" arrival="73.00" arrivalLane="-48778461#0_1" arrivalPos="53.57" arrivalSpeed="12.54" duration="33.00" routeLength="206.68" waitingTime="4.00" waitingCount="1" stopTime="0.00" timeLoss="12.83" rerouteNo="0" devices="tripinfo_veh65" vType="passenger" speedFactor="0.98" vaporized=""/>
    <tripinfo id="veh24" depart="15.00" departLane="48778526_1" departPos="84.88" departSpeed="0.00" departDelay="0.36" arrival="84.00" arrivalLane="-43544179#7_1" arrivalPos="45.60" arrivalSpeed="12.91" duration="69.00" routeLength="784.60" waitingTime="0.00" waitingCount="0" stopTime="0.00" timeLoss="8.65" rerouteNo="0" devices="tripinfo_veh24" vType="passenger" speedFactor="0.97" vaporized=""/>
    <tripinfo id="veh51" depart="32.00" departLane="353939570#5_2" departPos="33.54" departSpeed="0.00" departDelay="0.89" arrival="84.00" arrivalLane="40330575#4_1" arrivalPos="66.37" arrivalSpeed="12.28" duration="52.00" routeLength="483.00" waitingTime="0.00" waitingCount="0" stopTime="0.00" timeLoss="10.94" rerouteNo="0" devices="tripinfo_veh51" vType="passenger" speedFactor="0.91" vaporized=""/>
    <tripinfo id="veh11" depart="7.00" departLane="-250295381_1" departPos="1.79" departSpeed="0.00" departDelay="0.29" arrival="88.00" arrivalLane="992542691_0" arrivalPos="24.23" arrivalSpeed="4.61" duration="81.00" routeLength="806.99" waitingTime="0.00" waitingCount="0" stopTime="0.00" timeLoss="14.56" rerouteNo="0" devices="tripinfo_veh11" vType="delivery" speedFactor="0.97" vaporized=""/>
    <tripinfo id="veh60" depart="37.00" departLane="48778517#0_1" departPos="34.59" departSpeed="0.00" departDelay="0.40" arrival="95.00" arrivalLane="1136289988_1" arrivalPos="17.66" arrivalSpeed="8.66" duration="58.00" routeLength="551.80" waitingTime="0.00" waitingCount="0" stopTime="0.00" timeLoss="14.72" rerouteNo="0" devices="tripinfo_veh60" vType="passenger" speedFactor="1.09" vaporized=""/>
    <tripinfo id="veh2" depart="2.00" departLane="-43573547#6_1" departPos="33.18" departSpeed="0.00" departDelay="0.78" arrival="105.00" arrivalLane="-43547017#5_1" arrivalPos="24.30" arrivalSpeed="10.50" duration="103.00" routeLength="1218.28" waitingTime="0.00" waitingCount="0" stopTime="0.00" timeLoss="19.15" rerouteNo="0" devices="tripinfo_veh2" vType="passenger" speedFactor="1.08" vaporized=""/>
    <tripinfo id="veh1" depart="1.00" departLane="40266909#0_1" departPos="2.58" departSpeed="0.00" departDelay="0.39" arrival="108.00" arrivalLane="40345956#1_1" arrivalPos="78.47" arrivalSpeed="13.76" duration="107.00" routeLength="1249.42" waitingTime="0.00" waitingCount="0" stopTime="0.00" timeLoss="20.20" rerouteNo="0" devices="tripinfo_veh1" vType="passenger" speedFactor="1.08" vaporized=""/>
    <personinfo id="ped10" depart="50.00" type="DEFAULT_PEDTYPE" speedFactor="0.96" duration="63.00" waitingTime="0.00" timeLoss="7.40" traveltime="63.00">
        <walk depart="50.00" departPos="0.00" arrival="113.00" arrivalPos="5.93" duration="63.00" routeLength="74.08" timeLoss="7.40" maxSpeed="1.33"/>
    </personinfo>
    <tripinfo id="veh27" depart="17.00" departLane="945793485#1_1" departPos="0.52" departSpeed="0.00" departDelay="0.53" arrival="113.00" arrivalLane="647741479_1" arrivalPos="102.89" arrivalSpeed="12.67" duration="96.00" routeLength="855.32" waitingTime="0.00" waitingCount="0" stopTime="0.00" timeLoss="23.59" rerouteNo="0" devices="tripinfo_veh27" vType="motorcycle" speedFactor="1.02" vaporized=""/>
    <tripinfo id="veh101" depart="62.00" departLane="-1136289990_1" departPos="0.18" departSpeed="0.00" departDelay="0.39" arrival="114.00" arrivalLane="-43546935#2_1" arrivalPos="44.28" arrivalSpeed="13.67" duration="52.00" routeLength="503.90" waitingTime="0.00" waitingCount="0" stopTime="0.00" timeLoss="10.85" rerouteNo="0" devices="tripinfo_veh101" vType="passenger" speedFactor="1.00" vaporized=""/>
    <tripinfo id="veh111" depart="68.00" departLane="48736617#1_1" departPos="10.95" departSpeed="0.00" departDelay="0.29" arrival="131.00" arrivalLane="48736614#2_1" arrivalPos="59.68" arrivalSpeed="13.79" duration="63.00" routeLength="607.34" waitingTime="0.00" waitingCount="0" stopTime="0.00" timeLoss="16.31" rerouteNo="0" devices="tripinfo_veh111" vType="passenger" speedFactor="1.02" vaporized=""/>
    <tripinfo id="veh71" depart="44.00" departLane="43546343#1_1" departPos="17.57" departSpeed="0.00" departDelay="0.69" arrival="135.00" arrivalLane="48778493#1_1" arrivalPos="26.41" arrivalSpeed="14.09" duration="91.00" routeLength="1110.17" waitingTime="0.00" waitingCount="0" stopTime="0.00" timeLoss="13.08" rerouteNo="0" devices="tripinfo_veh71" vType="passenger" speedFactor="1.06" vaporized=""/>
    <tripinfo id="veh124" depart="76.00" departLane="43544001#12_1" departPos="32.12" departSpeed="0.00" departDelay="0.36" arrival="137.00" arrivalLane="-222608881#0_1" arrivalPos="169.24" arrivalSpeed="13.86" duration="61.00" routeLength="580.47" waitingTime="1.00" waitingCount="1" stopTime="0.00" timeLoss="16.44" rerouteNo="0" devices="tripinfo_veh124" vType="motorcycle" speedFactor="1.01" vaporized=""/>
    <tripinfo id="veh135" depart="83.00" departLane="383582854#1_0" departPos="16.16" departSpeed="0.00" departDelay="0.65" arrival="143.00" arrivalLane="48736657#1_1" arrivalPos="19.18" arrivalSpeed="10.46" duration="60.00" routeLength="452.09" waitingTime="0.00" waitingCount="0" stopTime="0.00" timeLoss="9.95" rerouteNo="0" devices="tripinfo_veh135" vType="passenger" speedFactor="0.90" vaporized=""/>
    <tripinfo id="veh70" depart="43.00" departLane="-40309190_1" departPos="45.37" departSpeed="0.00" departDelay="0.30" arrival="145.00" arrivalLane="353939570#7_2" arrivalPos="11.98" arrivalSpeed="11.83" duration="102.00" routeLength="983.40" waitingTime="2.00" waitingCount="1" stopTime="0.00" timeLoss="29.80" rerouteNo="0" devices="tripinfo_veh70" vType="passenger" speedFactor="1.05" vaporized=""/>
    <tripinfo id="veh77" depart="47.00" departLane="-43546064#1_1" departPos="4.23" departSpeed="0.00" departDelay="0.03" arrival="146.00" arrivalLane="43544138#4_1" arrivalPos="45.15" arrivalSpeed="13.35" duration="99.00" routeLength="1154.53" waitingTime="0.00" waitingCount="0" stopTime="0.00" timeLoss="12.08" rerouteNo="0" devices="tripinfo_veh77" vType="delivery" speedFactor="0.98" vaporized=""/>
    <tripinfo id="veh72" depart="44.00" departLane="43545645#1_1" departPos="18.12" departSpeed="0.00" departDelay="0.08" arrival="148.00" arrivalLane="-43544001#13_1" arrivalPos="78.45" arrivalSpeed="11.75" duration="104.00" routeLength="1044.98" waitingTime="0.00" waitingCount="0" stopTime="0.00" timeLoss="14.38" rerouteNo="0" devices="tripinfo_veh72" vType="passenger" speedFactor="0.86" vaporized=""/>
    <tripinfo id="veh40" depart="25.00" departLane="383582496_0" departPos="47.06" departSpeed="0.00" departDelay="0.60" arrival="151.00" arrivalLane="43546460#2_1" arrivalPos="42.79" arrivalSpeed="7.90" duration="126.00" routeLength="904.51" waitingTime="1.00" waitingCount="1" stopTime="0.00" timeLoss="27.98" rerouteNo="0" devices="tripinfo_veh40" vType="passenger" speedFactor="1.05" vaporized=""/>
    <tripinfo id="veh63" depart="39.00" departLane="40330575#1_1" departPos="0.96" departSpeed="0.00" departDelay="0.57" arrival="153.00" arrivalLane="-33909936#0_1" arrivalPos="22.20" arrivalSpeed="10.59" duration="114.00" routeLength="1169.48" waitingTime="2.00" waitingCount="1" stopTime="0.00" timeLoss="31.58" rerouteNo="0" devices="tripinfo_veh63" vType="passenger" speedFactor="1.08" vaporized=""/>
    <tripinfo id="veh31" depart="19.00" departLane="40305706#0_1" departPos="5.83" departSpeed="0.00" departDelay="0.09" arrival="156.00" arrivalLane="-859728205_0" arrivalPos="61.75" arrivalSpeed="4.83" duration="137.00" routeLength="1342.18" waitingTime="8.00" waitingCount="1" stopTime="0.00" timeLoss="30.65" rerouteNo="0" devices="tripinfo_veh31" vType="passenger" speedFactor="1.03" vaporized=""/>
    <tripinfo id="veh165" depart="101.00" departLane="40305706#0_1" departPos="17.87" departSpeed="0.00" departDelay="0.35" arrival="157.00" arrivalLane="40236144#3_1" arrivalPos="85.78" arrivalSpeed="13.32" duration="56.00" routeLength="548.38" waitingTime="0.00" waitingCount="0" stopTime="0.00" timeLoss="13.50" rerouteNo="0" devices="tripinfo_veh165" vType="emergency" speedFactor="1.00" vaporized=""/>
    <tripinfo id="veh105" depart="65.00" departLane="176279225#2_1" departPos="72.47" departSpeed="0.00" departDelay="0.95" arrival="162.00" arrivalLane="48778481#8_1" arrivalPos="12.21" arrivalSpeed="13.62" duration="97.00" routeLength="691.07" waitingTime="28.00" waitingCount="2" stopTime="0.00" timeLoss="48.23" rerouteNo="0" devices="tripinfo_veh105" vType="passenger" speedFactor="1.03" vaporized=""/>
    <tripinfo id="veh196" depart="120.00" departLane="-258551317_1" departPos="41.15" departSpeed="0.00" departDelay="0.44" arrival="162.00" arrivalLane="647755347#1_1" arrivalPos="34.98" arrivalSpeed="13.76" duration="42.00" routeLength="377.70" waitingTime="0.00" waitingCount="0" stopTime="0.00" timeLoss="10.75" rerouteNo="0" devices="tripinfo_veh196" vType="emergency" speedFactor="1.00" vaporized=""/>
    <tripinfo id="veh16" depart="10.00" departLane="-647226814#1_1" departPos="11.60" departSpeed="0.00" departDelay="0.24" arrival="165.00" arrivalLane="43546789#0_1" arrivalPos="14.66" arrivalSpeed="9.05" duration="155.00" routeLength="1728.52" waitingTime="0.00" waitingCount="0" stopTime="0.00" timeLoss="25.81" rerouteNo="0" devices="tripinfo_veh16" vType="passenger" speedFactor="1.01" vaporized=""/>
    <tripinfo id="veh95" depart="58.00" departLane="-222609002#1_1" departPos="13.86" departSpeed="0.00" departDelay="0.05" arrival="165.00" arrivalLane="48778475#0_1" arrivalPos="50.36" arrivalSpeed="11.66" duration="107.00" routeLength="1191.02" waitingTime="0.00" waitingCount="0" stopTime="0.00" timeLoss="17.26" rerouteNo="0" devices="tripinfo_veh95" vType="motorcycle" speedFactor="0.98" vaporized=""/>
    <tripinfo id="veh99" depart="61.00" departLane="-48778449#0_1" departPos="0.76" departSpeed="0.00" departDelay="0.61" arrival="167.00" arrivalLane="-48736620#1_1" arrivalPos="60.00" arrivalSpeed="11.35" duration="106.00" routeLength="1030.09" waitingTime="2.00" waitingCount="1" stopTime="0.00" timeLoss="19.03" rerouteNo="0" devices="tripinfo_veh99" vType="passenger" speedFactor="0.89" vaporized=""/>
    <tripinfo id="veh79" depart="49.00" departLane="-43546105#0_1" departPos="179.23" departSpeed="0.00" departDelay="0.81" arrival="169.00" arrivalLane="1136283379#1_1" arrivalPos="30.99" arrivalSpeed="7.39" duration="120.00" routeLength="694.51" waitingTime="42.00" waitingCount="1" stopTime="0.00" timeLoss="57.35" rerouteNo="0" devices="tripinfo_veh79" vType="passenger" speedFactor="0.89" vaporized=""/>
    <tripinfo id="veh7" depart="5.00" departLane="48778457#1_1" departPos="11.78" departSpeed="0.00" departDelay="0.73" arrival="170.00" arrivalLane="-945794111_1" arrivalPos="62.47" arrivalSpeed="8.51" duration="165.00" routeLength="1681.54" waitingTime="0.00" waitingCount="0" stopTime="0.00" timeLoss="43.76" rerouteNo="0" devices="tripinfo_veh7" vType="passenger" speedFactor="1.12" vaporized=""/>
    <tripinfo id="veh10" depart="7.00" departLane="859732802#0_0" departPos="3.82" departSpeed="0.00" departDelay="0.90" arrival="171.00" arrivalLane="-43546460#9_1" arrivalPos="51.84" arrivalSpeed="13.68" duration="164.00" routeLength="1862.87" waitingTime="4.00" waitingCount="1" stopTime="0.00" timeLoss="27.11" rerouteNo="0" devices="tripinfo_veh10" vType="passenger" speedFactor="1.04" vaporized=""/>
    <tripinfo id="veh162" depart="99.00" departLane="1136119745_1" departPos="17.13" departSpeed="0.00" departDelay="0.18" arrival="172.00" arrivalLane="1250915721#1_1" arrivalPos="5.01" arrivalSpeed="4.68" duration="73.00" routeLength="472.04" waitingTime="3.00" waitingCount="1" stopTime="0.00" timeLoss="17.35" rerouteNo="0" devices="tripinfo_veh162" vType="passenger" speedFactor="1.03" vaporized=""/>
    <tripinfo id="veh23" depart="15.00" departLane="383582509_0" departPos="86.04" departSpeed="0.00" departDelay="0.97" arrival="176.00" arrivalLane="-43544001#8_1" arrivalPos="45.26" arrivalSpeed="13.80" duration="161.00" routeLength="1919.14" waitingTime="0.00" waitingCount="0" stopTime="0.00" timeLoss="19.07" rerouteNo="0" devices="tripinfo_veh23" vType="passenger" speedFactor="0.99" vaporized=""/>
    <tripinfo id="veh39" depart="24.00" departLane="48778441#3_1" departPos="37.26" departSpeed="0.00" departDelay="0.21" arrival="176.00" arrivalLane="-383582508#0_0" arrivalPos="10.60" arrivalSpeed="6.05" duration="152.00" routeLength="1546.20" waitingTime="14.00" waitingCount="2" stopTime="0.00" timeLoss="48.70" rerouteNo="0" devices="tripinfo_veh39" vType="passenger" speedFactor="1.17" vaporized=""/>
    <tripinfo id="veh143" depart="88.00" departLane="143207982#4_1" departPos="10.07" departSpeed="0.00" departDelay="0.77" arrival="177.00" arrivalLane="48736611#1_1" arrivalPos="4.90" arrivalSpeed="7.83" duration="89.00" routeLength="733.92" waitingTime="9.00" waitingCount="1" stopTime="0.00" timeLoss="29.47" rerouteNo="0" devices="tripinfo_veh143" vType="passenger" speedFactor="1.03" vaporized=""/>
    <tripinfo id="veh9" depart="6.00" departLane="1378376381_2" departPos="9.65" departSpeed="0.00" departDelay="0.51" arrival="178.00" arrivalLane="984508804_0" arrivalPos="26.89" arrivalSpeed="4.70" duration="172.00" routeLength="762.05" waitingTime="8.00" waitingCount="1" stopTime="0.00" timeLoss="23.90" rerouteNo="0" devices="tripinfo_veh9" vType="bicycle" speedFactor="0.93" vaporized=""/>
    <tripinfo id="veh18" depart="11.00" departLane="-43573573#2_1" departPos="138.98" departSpeed="0.00" departDelay="0.02" arrival="178.00" arrivalLane="945793491#1_1" arrivalPos="67.96" arrivalSpeed="4.48" duration="167.00" routeLength="1509.28" waitingTime="7.00" waitingCount="1" stopTime="0.00" timeLoss="31.05" rerouteNo="0" devices="tripinfo_veh18" vType="passenger" speedFactor="1.03" vaporized=""/>
    <tripinfo id="veh176" depart="108.00" departLane="-48778517#1_1" departPos="10.61" departSpeed="0.00" departDelay="0.64" arrival="178.00" arrivalLane="-222609002#4_1" arrivalPos="52.31" arrivalSpeed="14.10" duration="70.00" routeLength="694.82" waitingTime="0.00" waitingCount="0" stopTime="0.00" timeLoss="17.39" rerouteNo="0" devices="tripinfo_veh176" vType="passenger" speedFactor="1.04" vaporized=""/>
    <tripinfo id="veh12" depart="8.00" departLane="383582500_0" departPos="113.63" departSpeed="0.00" departDelay="0.68" arrival="182.00" arrivalLane="-48778520_1" arrivalPos="53.92" arrivalSpeed="13.15" duration="174.00" routeLength="1736.90" waitingTime="4.00" waitingCount="1" stopTime="0.00" timeLoss="27.81" rerouteNo="0" devices="tripinfo_veh12" vType="emergency" speedFactor="1.00" vaporized=""/>
    <tripinfo id="veh6" depart="4.00" departLane="43547579#3_1" departPos="0.70" departSpeed="0.00" departDelay="0.34" arrival="184.00" arrivalLane="984508805_0" arrivalPos="34.81" arrivalSpeed="5.01" duration="180.00" routeLength="1877.83" waitingTime="0.00" waitingCount="0" stopTime="0.00" timeLoss="25.35" rerouteNo="0" devices="tripinfo_veh6" vType="passenger" speedFactor="0.92" vaporized=""/>
    <tripinfo id="veh5" depart="4.00" departLane="48736641_1" departPos="12.58" departSpeed="0.00" departDelay="0.95" arrival="185.00" arrivalLane="-43546115_1" arrivalPos="162.45" arrivalSpeed="14.02" duration="181.00" routeLength="2061.50" waitingTime="0.00" waitingCount="0" stopTime="0.00" timeLoss="33.92" rerouteNo="0" devices="tripinfo_veh5" vType="delivery" speedFactor="1.05" vaporized=""/>
    <tripinfo id="veh32" depart="20.00" departLane="1136279385_1" departPos="31.50" departSpeed="0.00" departDelay="0.48" arrival="186.00" arrivalLane="-1135854143_1" arrivalPos="57.62" arrivalSpeed="8.51" duration="166.00" routeLength="1270.01" waitingTime="29.00" waitingCount="3" stopTime="0.00" timeLoss="70.12" rerouteNo="0" devices="tripinfo_veh32" vType="passenger" speedFactor="1.07" vaporized=""/>
    <tripinfo id="veh47" depart="29.00" departLane="48778443#0_1" departPos="2.81" departSpeed="0.00" departDelay="0.33" arrival="187.00" arrivalLane="-43546115_1" arrivalPos="162.45" arrivalSpeed="14.89" duration="158.00" routeLength="1684.25" waitingTime="0.00" waitingCount="0" stopTime="0.00" timeLoss="42.66" rerouteNo="0" devices="tripinfo_veh47" vType="passenger" speedFactor="1.12" vaporized=""/>
    <personinfo id="ped27" depart="135.00" type="DEFAULT_PEDTYPE" speedFactor="1.01" duration="53.00" waitingTime="0.00" timeLoss="6.25" traveltime="53.00">
        <walk depart="135.00" departPos="0.00" arrival="188.00" arrivalPos="14.77" duration="53.00" routeLength="65.46" timeLoss="6.25" maxSpeed="1.40"/>
    </personinfo>
    <tripinfo id="veh142" depart="87.00" departLane="250295513_1" departPos="23.72" departSpeed="0.00" departDelay="0.38" arrival="190.00" arrivalLane="48778481#2_2" arrivalPos="77.95" arrivalSpeed="12.08" duration="103.00" routeLength="957.96" waitingTime="8.00" waitingCount="2" stopTime="0.00" timeLoss="28.21" rerouteNo="0" devices="tripinfo_veh142" vType="motorcycle" speedFactor="0.97" vaporized=""/>
    <tripinfo id="veh13" depart="8.00" departLane="-48778500#0_1" departPos="16.93" departSpeed="0.00" departDelay="0.07" arrival="198.00" arrivalLane="470210923#2_1" arrivalPos="56.87" arrivalSpeed="13.29" duration="190.00" routeLength="1604.84" waitingTime="57.00" waitingCount="1" stopTime="0.00" timeLoss="73.84" rerouteNo="0" devices="tripinfo_veh13" vType="passenger" speedFactor="1.02" vaporized=""/>
    <tripinfo id="veh107" depart="66.00" departLane="48788485#0_1" departPos="8.17" departSpeed="0.00" departDelay="0.73" arrival="198.00" arrivalLane="43544001#7_1" arrivalPos="45.63" arrivalSpeed="13.71" duration="132.00" routeLength="1436.75" waitingTime="2.00" waitingCount="1" stopTime="0.00" timeLoss="28.36" rerouteNo="0" devices="tripinfo_veh107" vType="passenger" speedFactor="1.04" vaporized=""/>
    <tripinfo id="veh115" depart="71.00" departLane="250295381_1" departPos="23.02" departSpeed="0.00" departDelay="0.85" arrival="198.00" arrivalLane="-383582512#0_0" arrivalPos="35.67" arrivalSpeed="5.00" duration="127.00" routeLength="1536.37" waitingTime="0.00" waitingCount="0" stopTime="0.00" timeLoss="12.94" rerouteNo="0" devices="tripinfo_veh115" vType="delivery" speedFactor="1.06" vaporized=""/>
    <tripinfo id="veh134" depart="82.00" departLane="40329447_1" departPos="11.01" departSpeed="0.00" departDelay="0.26" arrival="199.00" arrivalLane="43546343#0_1" arrivalPos="136.61" arrivalSpeed="11.56" duration="117.00" routeLength="974.15" waitingTime="0.00" waitingCount="0" stopTime="0.00" timeLoss="21.64" rerouteNo="0" devices="tripinfo_veh134" vType="passenger" speedFactor="0.87" vaporized=""/>
    <tripinfo id="veh206" depart="126.00" departLane="43544202#0_1" departPos="188.03" departSpeed="0.00" departDelay="0.34" arrival="200.00" arrivalLane="1136289987_1" arrivalPos="68.55" arrivalSpeed="10.08" duration="74.00" routeLength="852.00" waitingTime="0.00" waitingCount="0" stopTime="0.00" timeLoss="18.93" rerouteNo="0" devices="tripinfo_veh206" vType="passenger" speedFactor="1.26" vaporized=""/>
    <tripinfo id="veh262" depart="160.00" departLane="1136279381_1" departPos="46.05" departSpeed="0.00" departDelay="0.18" arrival="200.00" arrivalLane="-48736612#3_1" arrivalPos="54.88" arrivalSpeed="14.18" duration="40.00" routeLength="429.55" waitingTime="0.00" waitingCount="0" stopTime="0.00" timeLoss="7.39" rerouteNo="0" devices="tripinfo_veh262" vType="passenger" speedFactor="1.09" vaporized=""/>
    <tripinfo id="veh151" depart="93.00" departLane="-48778505#1_1" departPos="31.53" departSpeed="0.00" departDelay="0.89" arrival="202.00" arrivalLane="43546688#2_1" arrivalPos="41.74" arrivalSpeed="14.22" duration="109.00" routeLength="1193.12" waitingTime="3.00" waitingCount="1" stopTime="0.00" timeLoss="27.14" rerouteNo="0" devices="tripinfo_veh151" vType="passenger" speedFactor="1.10" vaporized=""/>
    <tripinfo id="veh147" depart="90.00" departLane="-984521611#1_0" departPos="10.22" departSpeed="0.00" departDelay="0.33" arrival="203.00" arrivalLane="48797766#0_1" arrivalPos="21.21" arrivalSpeed="10.03" duration="113.00" routeLength="989.66" waitingTime="0.00" waitingCount="0" stopTime="0.00" timeLoss="14.21" rerouteNo="0" devices="tripinfo_veh147" vType="passenger" speedFactor="0.89" vaporized=""/>
    <tripinfo id="veh152" depart="93.00" departLane="40306162#1_1" departPos="19.79" departSpeed="0.00" departDelay="0.28" arrival="204.00" arrivalLane="-43546343#1_1" arrivalPos="46.32" arrivalSpeed="12.11" duration="111.00" routeLength="972.05" waitingTime="3.00" waitingCount="2" stopTime="0.00" timeLoss="29.89" rerouteNo="0" devices="tripinfo_veh152" vType="passenger" speedFactor="0.90" vaporized=""/>
    <tripinfo id="veh46" depart="29.00" departLane="-258551317_1" departPos="1.26" departSpeed="0.00" departDelay="0.94" arrival="209.00" arrivalLane="-33913538#9_1" arrivalPos="32.77" arrivalSpeed="13.03" duration="180.00" routeLength="1379.61" waitingTime="50.00" waitingCount="3" stopTime="0.00" timeLoss="77.75" rerouteNo="0" devices="tripinfo_veh46" vType="passenger" speedFactor="1.00" vaporized=""/>
    <tripinfo id="veh20" depart="13.00" departLane="1135856746#0_1" departPos="1.83" departSpeed="0.00" departDelay="0.80" arrival="211.00" arrivalLane="40299276#1_1" arrivalPos="70.79" arrivalSpeed="11.63" duration="198.00" routeLength="2177.35" waitingTime="0.00" waitingCount="0" stopTime="0.00" timeLoss="18.56" rerouteNo="0" devices="tripinfo_veh20" vType="passenger" speedFactor="0.89" vaporized=""/>
    <tripinfo id="veh68" depart="42.00" departLane="33909936#5_1" departPos="17.04" departSpeed="0.00" departDelay="0.52" arrival="211.00" arrivalLane="-222605084#2_1" arrivalPos="1.50" arrivalSpeed="4.64" duration="169.00" routeLength="1376.52" waitingTime="0.00" waitingCount="0" stopTime="0.00" timeLoss="33.69" rerouteNo="0" devices="tripinfo_veh68" vType="motorcycle" speedFactor="0.94" vaporized=""/>
    <tripinfo id="veh126" depart="77.00" departLane="-43544179#7_1" departPos="29.61" departSpeed="0.00" departDelay="0.14" arrival="214.00" arrivalLane="648082196_1" arrivalPos="93.22" arrivalSpeed="13.33" duration="137.00" routeLength="1461.71" waitingTime="3.00" waitingCount="1" stopTime="0.00" timeLoss="27.35" rerouteNo="0" devices="tripinfo_veh126" vType="delivery" speedFactor="1.00" vaporized=""/>
    <tripinfo id="veh197" depart="121.00" departLane="353939585#0_1" departPos="24.67" departSpeed="0.00" departDelay="0.83" arrival="216.00" arrivalLane="-1136117610_0" arrivalPos="80.17" arrivalSpeed="2.10" duration="95.00" routeLength="759.56" waitingTime="0.00" waitingCount="0" stopTime="0.00" timeLoss="20.72" rerouteNo="0" devices="tripinfo_veh197" vType="passenger" speedFactor="1.10" vaporized=""/>
    <tripinfo id="veh204" depart="125.00" departLane="48778502#0_1" departPos="16.64" departSpeed="0.00" departDelay="0.56" arrival="217.00" arrivalLane="-43544179#11_1" arrivalPos="85.20" arrivalSpeed="13.55" duration="92.00" routeLength="1022.62" waitingTime="0.00" waitingCount="0" stopTime="0.00" timeLoss="14.33" rerouteNo="0" devices="tripinfo_veh204" vType="delivery" speedFactor="0.98" vaporized=""/>
    <tripinfo id="veh249" depart="152.00" departLane="647347140#2_1" departPos="11.89" departSpeed="0.00" departDelay="0.11" arrival="221.00" arrivalLane="43544179#11_1" arrivalPos="85.20" arrivalSpeed="12.29" duration="69.00" routeLength="753.07" waitingTime="0.00" waitingCount="0" stopTime="0.00" timeLoss="11.34" rerouteNo="0" devices="tripinfo_veh249" vType="passenger" speedFactor="0.97" vaporized=""/>
    <tripinfo id="veh100" depart="61.00" departLane="-43546064#0_1" departPos="21.89" departSpeed="0.00" departDelay="0.00" arrival="225.00" arrivalLane="-48778479_1" arrivalPos="432.92" arrivalSpeed="13.47" duration="164.00" routeLength="2022.88" waitingTime="0.00" waitingCount="0" stopTime="0.00" timeLoss="20.39" rerouteNo="0" devices="tripinfo_veh100" vType="passenger" speedFactor="1.03" vaporized=""/>
    <tripinfo id="veh110" depart="68.00" departLane="-383582854#1_0" departPos="10.12" departSpeed="0.00" departDelay="0.90" arrival="227.00" arrivalLane="-383582497_0" arrivalPos="31.03" arrivalSpeed="2.73" duration="159.00" routeLength="1644.46" waitingTime="0.00" waitingCount="0" stopTime="0.00" timeLoss="20.06" rerouteNo="0" devices="tripinfo_veh110" vType="emergency" speedFactor="1.00" vaporized=""/>
    <tripinfo id="veh28" depart="18.00" departLane="-48778453_1" departPos="5.22" departSpeed="0.00" departDelay="0.92" arrival="228.00" arrivalLane="-945793490#5_1" arrivalPos="110.67" arrivalSpeed="4.19" duration="210.00" routeLength="1894.80" waitingTime="0.00" waitingCount="0" stopTime="0.00" timeLoss="32.40" rerouteNo="0" devices="tripinfo_veh28" vType="passenger" speedFactor="0.94" vaporized=""/>
    <tripinfo id="veh89" depart="55.00" departLane="43546648#0_1" departPos="98.43" departSpeed="0.00" departDelay="0.71" arrival="229.00" arrivalLane="-48736632#1_1" arrivalPos="49.82" arrivalSpeed="13.86" duration="174.00" routeLength="1814.16" waitingTime="0.00" waitingCount="0" stopTime="0.00" timeLoss="36.71" rerouteNo="0" devices="tripinfo_veh89" vType="delivery" speedFactor="1.01" vaporized=""/>
    <tripinfo id="veh36" depart="22.00" departLane="1135856957_0" departPos="2.84" departSpeed="0.00" departDelay="0.04" arrival="231.00" arrivalLane="-43546105#3_1" arrivalPos="36.33" arrivalSpeed="12.24" duration="209.00" routeLength="2045.86" waitingTime="1.00" waitingCount="1" stopTime="0.00" timeLoss="41.84" rerouteNo="0" devices="tripinfo_veh36" vType="passenger" speedFactor="0.95" vaporized=""/>
    <tripinfo id="veh213" depart="130.00" departLane="33909936#1_1" departPos="88.57" departSpeed="0.00" departDelay="0.07" arrival="231.00" arrivalLane="-43544001#14_1" arrivalPos="60.31" arrivalSpeed="15.65" duration="101.00" routeLength="1350.13" waitingTime="1.00" waitingCount="1" stopTime="0.00" timeLoss="14.41" rerouteNo="0" devices="tripinfo_veh213" vType="passenger" speedFactor="1.13" vaporized=""/>
    <tripinfo id="veh104" depart="64.00" departLane="-994065252_0" departPos="137.22" departSpeed="0.00" departDelay="0.56" arrival="232.00" arrivalLane="-43546570#0_1" arrivalPos="43.31" arrivalSpeed="8.38" duration="168.00" routeLength="1875.64" waitingTime="0.00" waitingCount="0" stopTime="0.00" timeLoss="39.80" rerouteNo="0" devices="tripinfo_veh104" vType="motorcycle" speedFactor="1.10" vaporized=""/>
    <tripinfo id="veh122" depart="75.00" departLane="-1250915724#0_1" departPos="10.41" departSpeed="0.00" departDelay="0.58" arrival="232.00" arrivalLane="48778499#0_1" arrivalPos="44.27" arrivalSpeed="11.95" duration="157.00" routeLength="911.53" waitingTime="28.00" waitingCount="1" stopTime="0.00" timeLoss="63.62" rerouteNo="0" devices="tripinfo_veh122" vType="passenger" speedFactor="0.92" vaporized=""/>
    <tripinfo id="veh116" depart="71.00" departLane="-43546785_1" departPos="55.60" departSpeed="0.00" departDelay="0.24" arrival="233.00" arrivalLane="43545645#2_1" arrivalPos="314.77" arrivalSpeed="16.14" duration="162.00" routeLength="2143.39" waitingTime="0.00" waitingCount="0" stopTime="0.00" timeLoss="30.02" rerouteNo="0" devices="tripinfo_veh116" vType="passenger" speedFactor="1.21" vaporized=""/>
    <tripinfo id="veh130" depart="80.00" departLane="-43546789#3_1" departPos="37.78" departSpeed="0.00" departDelay="0.70" arrival="234.00" arrivalLane="994066251#1_0" arrivalPos="3.30" arrivalSpeed="5.05" duration="154.00" routeLength="1514.68" waitingTime="0.00" waitingCount="0" stopTime="0.00" timeLoss="20.70" rerouteNo="0" devices="tripinfo_veh130" vType="passenger" speedFactor="0.97" vaporized=""/>
    <tripinfo id="veh211" depart="129.00" departLane="-48778512_1" departPos="4.78" departSpeed="0.00" departDelay="0.29" arrival="235.00" arrivalLane="222608881#1_1" arrivalPos="39.96" arrivalSpeed="14.01" duration="106.00" routeLength="1008.93" waitingTime="0.00" waitingCount="0" stopTime="0.00" timeLoss="24.20" rerouteNo="0" devices="tripinfo_veh211" vType="passenger" speedFactor="1.01" vaporized=""/>