<?xml version="1.0" encoding="UTF-8"?>

<!-- generated on 2025-06-12 12:03:01 by Eclipse SUMO sumo Version 1.22.0
<sumoConfiguration xmlns:xsi="http://www.w3.org/2001/XMLSchema-instance" xsi:noNamespaceSchemaLocation="http://sumo.dlr.de/xsd/sumoConfiguration.xsd">

    <input>
        <net-file value="E:/licenta/oras-mediu/2025-06-05-11-45-23/osm.net.xml"/>
        <route-files value="E:/licenta/oras-mediu/2025-06-05-11-45-23/full.rou.xml,E:/licenta/oras-mediu/2025-06-05-11-45-23/ ped.rou.xml,E:/licenta/oras-mediu/2025-06-05-11-45-23/ truck.rou.xml"/>
        <additional-files value="E:/licenta/oras-mediu/2025-06-05-11-45-23/osm.poly.xml,E:/licenta/oras-mediu/2025-06-05-11-45-23/ vtypes.xml"/>
    </input>

    <output>
        <summary-output value="E:/licenta/oras-mediu/2025-06-05-11-45-23/summary.xml"/>
        <tripinfo-output value="E:/licenta/oras-mediu/2025-06-05-11-45-23/tripinfo.xml"/>
    </output>

    <processing>
        <ignore-route-errors value="true"/>
        <tls.actuated.jam-threshold value="30"/>
    </processing>

    <routing>
        <device.rerouting.adaptation-steps value="18"/>
        <device.rerouting.adaptation-interval value="10"/>
    </routing>

    <report>
        <verbose value="true"/>
        <duration-log.statistics value="true"/>
        <no-step-log value="true"/>
    </report>

    <traci_server>
        <remote-port value="63758"/>
    </traci_server>

    <gui_only>
        <gui-settings-file value="E:/licenta/oras-mediu/2025-06-05-11-45-23/osm.view.xml"/>
    </gui_only>

</sumoConfiguration>
-->

<tripinfos xmlns:xsi="http://www.w3.org/2001/XMLSchema-instance" xsi:noNamespaceSchemaLocation="http://sumo.dlr.de/xsd/tripinfo_file.xsd">
    <personinfo id="ped4" depart="20.00" type="DEFAULT_PEDTYPE" speedFactor="1.08" duration="9.00" waitingTime="0.00" timeLoss="1.15" traveltime="9.00">
        <walk depart="20.00" departPos="0.00" arrival="29.00" arrivalPos="11.78" duration="9.00" routeLength="11.78" timeLoss="1.15" maxSpeed="1.50"/>
    </personinfo>
    <tripinfo id="veh29" depart="18.00" departLane="-43544184#3_1" departPos="70.83" departSpeed="0.00" departDelay="0.02" arrival="44.00" arrivalLane="-43547017#5_1" arrivalPos="24.30" arrivalSpeed="11.53" duration="26.00" routeLength="255.12" waitingTime="0.00" waitingCount="0" stopTime="0.00" timeLoss="6.77" rerouteNo="0" devices="tripinfo_veh29" vType="motorcycle" speedFactor="1.02" vaporized=""/>
    <personinfo id="ped0" depart="0.00" type="DEFAULT_PEDTYPE" speedFactor="1.03" duration="45.00" waitingTime="0.00" timeLoss="4.66" traveltime="45.00">
        <walk depart="0.00" departPos="0.00" arrival="45.00" arrivalPos="20.83" duration="45.00" routeLength="57.73" timeLoss="4.66" maxSpeed="1.43"/>
    </personinfo>
    <tripinfo id="veh2" depart="2.00" departLane="40306162#1_1" departPos="22.85" departSpeed="0.00" departDelay="0.76" arrival="47.00" arrivalLane="-40306162#1_1" arrivalPos="43.20" arrivalSpeed="12.34" duration="45.00" routeLength="393.59" waitingTime="0.00" waitingCount="0" stopTime="0.00" timeLoss="15.93" rerouteNo="0" devices="tripinfo_veh2" vType="passenger" speedFactor="1.08" vaporized=""/>
    <tripinfo id="veh12" depart="8.00" departLane="-E27_1" departPos="11.27" departSpeed="0.00" departDelay="0.56" arrival="54.00" arrivalLane="-48736624#0_1" arrivalPos="112.70" arrivalSpeed="12.97" duration="46.00" routeLength="484.02" waitingTime="0.00" waitingCount="0" stopTime="0.00" timeLoss="8.08" rerouteNo="0" devices="tripinfo_veh12" vType="delivery" speedFactor="0.97" vaporized=""/>
    <tripinfo id="veh72" depart="45.00" departLane="-E34_1" departPos="21.98" departSpeed="0.00" departDelay="0.36" arrival="65.00" arrivalLane="176279225#3_1" arrivalPos="13.07" arrivalSpeed="13.40" duration="20.00" routeLength="213.07" waitingTime="0.00" waitingCount="0" stopTime="0.00" timeLoss="3.96" rerouteNo="0" devices="tripinfo_veh72" vType="passenger" speedFactor="1.01" vaporized=""/>
    <personinfo id="ped12" depart="60.00" type="DEFAULT_PEDTYPE" speedFactor="1.06" duration="14.00" waitingTime="0.00" timeLoss="2.08" traveltime="14.00">
        <walk depart="60.00" departPos="0.00" arrival="74.00" arrivalPos="3.09" duration="14.00" routeLength="17.49" timeLoss="2.08" maxSpeed="1.47"/>
    </personinfo>
    <tripinfo id="veh9" depart="6.00" departLane="1136284448_1" departPos="9.13" departSpeed="0.00" departDelay="0.42" arrival="76.00" arrivalLane="859732803#0_0" arrivalPos="20.07" arrivalSpeed="4.94" duration="70.00" routeLength="665.35" waitingTime="0.00" waitingCount="0" stopTime="0.00" timeLoss="9.77" rerouteNo="0" devices="tripinfo_veh9" vType="passenger" speedFactor="0.90" vaporized=""/>
    <tripinfo id="veh62" depart="39.00" departLane="-48797774_1" departPos="91.58" departSpeed="0.00" departDelay="0.56" arrival="79.00" arrivalLane="-859734513_0" arrivalPos="94.64" arrivalSpeed="5.32" duration="40.00" routeLength="294.50" waitingTime="0.00" waitingCount="0" stopTime="0.00" timeLoss="8.43" rerouteNo="0" devices="tripinfo_veh62" vType="passenger" speedFactor="1.03" vaporized=""/>
    <tripinfo id="veh17" depart="11.00" departLane="43544179#10_1" departPos="17.37" departSpeed="0.00" departDelay="0.46" arrival="80.00" arrivalLane="-383582518#0_0" arrivalPos="49.42" arrivalSpeed="3.73" duration="69.00" routeLength="540.13" waitingTime="0.00" waitingCount="0" stopTime="0.00" timeLoss="12.00" rerouteNo="0" devices="tripinfo_veh17" vType="passenger" speedFactor="0.89" vaporized=""/>
    <tripinfo id="veh6" depart="4.00" departLane="-43544184#4_1" departPos="0.11" departSpeed="0.00" departDelay="0.28" arrival="81.00" arrivalLane="43544197#8_1" arrivalPos="132.38" arrivalSpeed="11.81" duration="77.00" routeLength="696.33" waitingTime="4.00" waitingCount="1" stopTime="0.00" timeLoss="18.50" rerouteNo="0" devices="tripinfo_veh6" vType="passenger" speedFactor="0.92" vaporized=""/>
    <tripinfo id="veh41" depart="26.00" departLane="-48778441#0_1" departPos="32.32" departSpeed="0.00" departDelay="0.58" arrival="88.00" arrivalLane="250295383#3_1" arrivalPos="11.98" arrivalSpeed="15.96" duration="62.00" routeLength="520.29" waitingTime="11.00" waitingCount="1" stopTime="0.00" timeLoss="27.95" rerouteNo="0" devices="tripinfo_veh41" vType="passenger" speedFactor="1.17" vaporized=""/>
    <tripinfo id="veh89" depart="56.00" departLane="647998063#0_1" departPos="61.08" departSpeed="0.00" departDelay="0.82" arrival="95.00" arrivalLane="647998063#2_1" arrivalPos="103.13" arrivalSpeed="13.31" duration="39.00" routeLength="443.86" waitingTime="0.00" waitingCount="0" stopTime="0.00" timeLoss="6.45" rerouteNo="0" devices="tripinfo_veh89" vType="delivery" speedFactor="1.03" vaporized=""/>
    <tripinfo id="veh23" depart="15.00" departLane="-40330575#4_1" departPos="38.02" departSpeed="0.00" departDelay="0.74" arrival="109.00" arrivalLane="-1250915720#0_1" arrivalPos="2.68" arrivalSpeed="4.76" duration="94.00" routeLength="625.45" waitingTime="0.00" waitingCount="0" stopTime="0.00" timeLoss="15.61" rerouteNo="0" devices="tripinfo_veh23" vType="passenger" speedFactor="0.89" vaporized=""/>
    <tripinfo id="veh7" depart="5.00" departLane="43546115_1" departPos="75.73" departSpeed="0.00" departDelay="0.66" arrival="112.00" arrivalLane="-647226814#0_1" arrivalPos="40.12" arrivalSpeed="14.74" duration="107.00" routeLength="1334.70" waitingTime="0.00" waitingCount="0" stopTime="0.00" timeLoss="19.20" rerouteNo="0" devices="tripinfo_veh7" vType="passenger" speedFactor="1.12" vaporized=""/>
    <tripinfo id="veh19" depart="12.00" departLane="1250915726_1" departPos="209.09" departSpeed="0.00" departDelay="0.22" arrival="113.00" arrivalLane="48778494#0_1" arrivalPos="50.01" arrivalSpeed="11.52" duration="101.00" routeLength="644.93" waitingTime="4.00" waitingCount="1" stopTime="0.00" timeLoss="23.43" rerouteNo="0" devices="tripinfo_veh19" vType="passenger" speedFactor="0.87" vaporized=""/>
    <tripinfo id="veh15" depart="10.00" departLane="-859735387#1_0" departPos="16.55" departSpeed="0.00" departDelay="0.70" arrival="123.00" arrivalLane="-43544001#1_1" arrivalPos="21.27" arrivalSpeed="13.11" duration="113.00" routeLength="1226.22" waitingTime="0.00" waitingCount="0" stopTime="0.00" timeLoss="13.00" rerouteNo="0" devices="tripinfo_veh15" vType="passenger" speedFactor="1.02" vaporized=""/>
    <tripinfo id="veh42" depart="27.00" departLane="-40299739#3_1" departPos="64.59" departSpeed="0.00" departDelay="0.96" arrival="123.00" arrivalLane="-48736638#1_1" arrivalPos="84.57" arrivalSpeed="13.63" duration="96.00" routeLength="844.37" waitingTime="0.00" waitingCount="0" stopTime="0.00" timeLoss="22.65" rerouteNo="0" devices="tripinfo_veh42" vType="passenger" speedFactor="1.05" vaporized=""/>
    <tripinfo id="veh131" depart="82.00" departLane="-143207982#1_1" departPos="37.76" departSpeed="0.00" departDelay="0.78" arrival="124.00" arrivalLane="48736614#1_1" arrivalPos="221.38" arrivalSpeed="12.58" duration="42.00" routeLength="426.35" waitingTime="0.00" waitingCount="0" stopTime="0.00" timeLoss="6.50" rerouteNo="0" devices="tripinfo_veh131" vType="passenger" speedFactor="0.91" vaporized=""/>
    <tripinfo id="veh100" depart="62.00" departLane="945794111_1" departPos="43.02" departSpeed="0.00" departDelay="0.00" arrival="132.00" arrivalLane="-222609002#2_1" arrivalPos="15.40" arrivalSpeed="8.55" duration="70.00" routeLength="494.75" waitingTime="5.00" waitingCount="1" stopTime="0.00" timeLoss="21.87" rerouteNo="0" devices="tripinfo_veh100" vType="passenger" speedFactor="1.03" vaporized=""/>
    <tripinfo id="veh139" depart="87.00" departLane="E23_1" departPos="2.34" departSpeed="0.00" departDelay="0.82" arrival="134.00" arrivalLane="48736621#0_1" arrivalPos="15.22" arrivalSpeed="9.04" duration="47.00" routeLength="492.64" waitingTime="1.00" waitingCount="1" stopTime="0.00" timeLoss="13.95" rerouteNo="0" devices="tripinfo_veh139" vType="passenger" speedFactor="1.13" vaporized=""/>
    <tripinfo id="veh196" depart="122.00" departLane="40306149_1" departPos="1.10" departSpeed="0.00" departDelay="0.48" arrival="143.00" arrivalLane="40266621_1" arrivalPos="38.01" arrivalSpeed="13.12" duration="21.00" routeLength="208.17" waitingTime="0.00" waitingCount="0" stopTime="0.00" timeLoss="5.46" rerouteNo="0" devices="tripinfo_veh196" vType="delivery" speedFactor="0.99" vaporized=""/>
    <tripinfo id="veh65" depart="41.00" departLane="48778493#2_1" departPos="1.55" departSpeed="0.00" departDelay="0.70" arrival="148.00" arrivalLane="-273835686#1_1" arrivalPos="75.58" arrivalSpeed="15.03" duration="107.00" routeLength="1054.51" waitingTime="0.00" waitingCount="0" stopTime="0.00" timeLoss="27.06" rerouteNo="0" devices="tripinfo_veh65" vType="passenger" speedFactor="1.09" vaporized=""/>
    <tripinfo id="veh26" depart="17.00" departLane="-40330571#0_1" departPos="10.08" departSpeed="0.00" departDelay="0.88" arrival="150.00" arrivalLane="48736666#1_1" arrivalPos="12.12" arrivalSpeed="9.59" duration="133.00" routeLength="1477.43" waitingTime="1.00" waitingCount="1" stopTime="0.00" timeLoss="22.59" rerouteNo="0" devices="tripinfo_veh26" vType="passenger" speedFactor="0.99" vaporized=""/>
    <tripinfo id="veh77" depart="48.00" departLane="-492965072#0_0" departPos="65.39" departSpeed="0.00" departDelay="0.26" arrival="168.00" arrivalLane="-40295499#0_1" arrivalPos="60.92" arrivalSpeed="13.76" duration="120.00" routeLength="1565.23" waitingTime="0.00" waitingCount="0" stopTime="0.00" timeLoss="11.99" rerouteNo="0" devices="tripinfo_veh77" vType="passenger" speedFactor="1.06" vaporized=""/>
    <tripinfo id="veh145" depart="90.00" departLane="-43544588#1_1" departPos="13.52" departSpeed="0.00" departDelay="0.10" arrival="171.00" arrivalLane="-43573573#4_1" arrivalPos="73.63" arrivalSpeed="14.12" duration="81.00" routeLength="803.55" waitingTime="0.00" waitingCount="0" stopTime="0.00" timeLoss="19.02" rerouteNo="0" devices="tripinfo_veh145" vType="motorcycle" speedFactor="1.02" vaporized=""/>
    <tripinfo id="veh255" depart="159.00" departLane="-43544624#0_1" departPos="131.61" departSpeed="0.00" departDelay="0.90" arrival="175.00" arrivalLane="-43544624#0_1" arrivalPos="295.18" arrivalSpeed="13.54" duration="16.00" routeLength="163.57" waitingTime="0.00" waitingCount="0" stopTime="0.00" timeLoss="3.20" rerouteNo="0" devices="tripinfo_veh255" vType="passenger" speedFactor="0.98" vaporized=""/>
    <tripinfo id="veh122" depart="76.00" departLane="48778501_1" departPos="144.28" departSpeed="0.00" departDelay="0.36" arrival="178.00" arrivalLane="-40304754#4_1" arrivalPos="101.37" arrivalSpeed="12.48" duration="102.00" routeLength="1081.25" waitingTime="3.00" waitingCount="1" stopTime="0.00" timeLoss="17.89" rerouteNo="0" devices="tripinfo_veh122" vType="passenger" speedFactor="0.97" vaporized=""/>
    <tripinfo id="veh31" depart="20.00" departLane="-48736646#0_1" departPos="5.95" departSpeed="0.00" departDelay="0.78" arrival="186.00" arrivalLane="43545645#1_1" arrivalPos="98.66" arrivalSpeed="15.04" duration="166.00" routeLength="2081.57" waitingTime="0.00" waitingCount="0" stopTime="0.00" timeLoss="26.76" rerouteNo="0" devices="tripinfo_veh31" vType="passenger" speedFactor="1.10" vaporized=""/>
    <tripinfo id="veh98" depart="61.00" departLane="-43546064#2_1" departPos="57.13" departSpeed="0.00" departDelay="0.24" arrival="187.00" arrivalLane="92198453#4_1" arrivalPos="61.61" arrivalSpeed="12.79" duration="126.00" routeLength="1495.21" waitingTime="0.00" waitingCount="0" stopTime="0.00" timeLoss="14.87" rerouteNo="0" devices="tripinfo_veh98" vType="motorcycle" speedFactor="0.98" vaporized=""/>
    <tripinfo id="veh24" depart="15.00" departLane="48778475#2_1" departPos="14.66" departSpeed="0.00" departDelay="0.12" arrival="191.00" arrivalLane="143207979#8_1" arrivalPos="38.62" arrivalSpeed="15.61" duration="176.00" routeLength="2284.00" waitingTime="0.00" waitingCount="0" stopTime="0.00" timeLoss="29.05" rerouteNo="0" devices="tripinfo_veh24" vType="passenger" speedFactor="1.15" vaporized=""/>
    <personinfo id="ped3" depart="15.00" type="DEFAULT_PEDTYPE" speedFactor="1.10" duration="182.00" waitingTime="0.00" timeLoss="18.55" traveltime="182.00">
        <walk depart="15.00" departPos="0.00" arrival="197.00" arrivalPos="36.41" duration="182.00" routeLength="248.67" timeLoss="18.55" maxSpeed="1.52"/>
    </personinfo>
    <tripinfo id="veh221" depart="138.00" departLane="354252043_1" departPos="55.17" departSpeed="0.00" departDelay="0.98" arrival="197.00" arrivalLane="-43547256#2_1" arrivalPos="217.44" arrivalSpeed="13.33" duration="59.00" routeLength="651.89" waitingTime="0.00" waitingCount="0" stopTime="0.00" timeLoss="9.02" rerouteNo="0" devices="tripinfo_veh221" vType="passenger" speedFactor="1.00" vaporized=""/>
    <tripinfo id="veh11" depart="7.00" departLane="E9_1" departPos="28.87" departSpeed="0.00" departDelay="0.18" arrival="198.00" arrivalLane="48736621#2_1" arrivalPos="13.16" arrivalSpeed="13.38" duration="191.00" routeLength="1802.16" waitingTime="17.00" waitingCount="2" stopTime="0.00" timeLoss="53.08" rerouteNo="0" devices="tripinfo_veh11" vType="passenger" speedFactor="1.04" vaporized=""/>
    <tripinfo id="veh40" depart="25.00" departLane="-578560104#6_1" departPos="63.28" departSpeed="0.00" departDelay="0.20" arrival="199.00" arrivalLane="43544138#0_1" arrivalPos="42.14" arrivalSpeed="13.82" duration="174.00" routeLength="1900.45" waitingTime="13.00" waitingCount="1" stopTime="0.00" timeLoss="40.59" rerouteNo="0" devices="tripinfo_veh40" vType="passenger" speedFactor="1.06" vaporized=""/>
    <tripinfo id="veh126" depart="79.00" departLane="945794110_1" departPos="19.26" departSpeed="0.00" departDelay="0.88" arrival="202.00" arrivalLane="-945793490#3_1" arrivalPos="33.80" arrivalSpeed="5.44" duration="123.00" routeLength="1087.96" waitingTime="0.00" waitingCount="0" stopTime="0.00" timeLoss="20.00" rerouteNo="0" devices="tripinfo_veh126" vType="passenger" speedFactor="1.07" vaporized=""/>
    <tripinfo id="veh182" depart="113.00" departLane="48778508#0_1" departPos="4.43" departSpeed="0.00" departDelay="0.16" arrival="202.00" arrivalLane="-43546115_1" arrivalPos="162.45" arrivalSpeed="13.58" duration="89.00" routeLength="1048.98" waitingTime="0.00" waitingCount="0" stopTime="0.00" timeLoss="17.32" rerouteNo="0" devices="tripinfo_veh182" vType="motorcycle" speedFactor="1.10" vaporized=""/>
    <tripinfo id="veh71" depart="45.00" departLane="40266909#1_1" departPos="39.51" departSpeed="0.00" departDelay="0.98" arrival="203.00" arrivalLane="251916699#0_1" arrivalPos="41.21" arrivalSpeed="12.76" duration="158.00" routeLength="1820.70" waitingTime="0.00" waitingCount="0" stopTime="0.00" timeLoss="19.78" rerouteNo="0" devices="tripinfo_veh71" vType="passenger" speedFactor="0.98" vaporized=""/>
    <tripinfo id="veh119" depart="74.00" departLane="40236259_1" departPos="78.86" departSpeed="0.00" departDelay="0.22" arrival="205.00" arrivalLane="-43573547#1_1" arrivalPos="26.16" arrivalSpeed="13.10" duration="131.00" routeLength="1082.02" waitingTime="35.00" waitingCount="1" stopTime="0.00" timeLoss="54.60" rerouteNo="0" devices="tripinfo_veh119" vType="delivery" speedFactor="1.06" vaporized=""/>
    <tripinfo id="veh202" depart="126.00" departLane="40345930_1" departPos="4.85" departSpeed="0.00" departDelay="0.76" arrival="206.00" arrivalLane="48778493#2_1" arrivalPos="44.65" arrivalSpeed="13.83" duration="80.00" routeLength="712.03" waitingTime="0.00" waitingCount="0" stopTime="0.00" timeLoss="15.36" rerouteNo="0" devices="tripinfo_veh202" vType="emergency" speedFactor="1.00" vaporized=""/>
    <personinfo id="ped39" depart="195.00" type="DEFAULT_PEDTYPE" speedFactor="0.97" duration="12.00" waitingTime="0.00" timeLoss="1.21" traveltime="12.00">
        <walk depart="195.00" departPos="0.00" arrival="207.00" arrivalPos="8.28" duration="12.00" routeLength="14.51" timeLoss="1.21" maxSpeed="1.34"/>
    </personinfo>
    <tripinfo id="veh61" depart="38.00" departLane="-48778502#1_1" departPos="25.28" departSpeed="0.00" departDelay="0.18" arrival="207.00" arrivalLane="40306162#1_1" arrivalPos="38.73" arrivalSpeed="15.37" duration="169.00" routeLength="1830.37" waitingTime="9.00" waitingCount="1" stopTime="0.00" timeLoss="44.37" rerouteNo="0" devices="tripinfo_veh61" vType="passenger" speedFactor="1.12" vaporized=""/>
    <tripinfo id="veh149" depart="93.00" departLane="258551297#0_0" departPos="7.25" departSpeed="0.00" departDelay="0.62" arrival="211.00" arrivalLane="647640187_0" arrivalPos="72.27" arrivalSpeed="4.33" duration="118.00" routeLength="792.95" waitingTime="0.00" waitingCount="0" stopTime="0.00" timeLoss="29.34" rerouteNo="0" devices="tripinfo_veh149" vType="motorcycle" speedFactor="0.97" vaporized=""/>
    <tripinfo id="veh90" depart="56.00" departLane="-40295499#2_1" departPos="15.79" departSpeed="0.00" departDelay="0.20" arrival="212.00" arrivalLane="647677163_1" arrivalPos="73.51" arrivalSpeed="16.33" duration="156.00" routeLength="1719.26" waitingTime="27.00" waitingCount="1" stopTime="0.00" timeLoss="53.48" rerouteNo="0" devices="tripinfo_veh90" vType="passenger" speedFactor="1.25" vaporized=""/>
    <tripinfo id="veh0" depart="0.00" departLane="-40236203#1_1" departPos="29.13" departSpeed="0.00" departDelay="0.00" arrival="214.00" arrivalLane="48778479_1" arrivalPos="433.06" arrivalSpeed="11.50" duration="214.00" routeLength="2391.29" waitingTime="0.00" waitingCount="0" stopTime="0.00" timeLoss="32.29" rerouteNo="0" devices="tripinfo_veh0" vType="motorcycle" speedFactor="0.98" vaporized=""/>
    <personinfo id="ped21" depart="105.00" type="DEFAULT_PEDTYPE" speedFactor="1.19" duration="111.00" waitingTime="0.00" timeLoss="11.34" traveltime="111.00">
        <walk depart="105.00" departPos="0.00" arrival="216.00" arrivalPos="30.16" duration="111.00" routeLength="164.24" timeLoss="11.34" maxSpeed="1.65"/>
    </personinfo>
    <tripinfo id="veh85" depart="53.00" departLane="-40265774#0_2" departPos="8.87" departSpeed="0.00" departDelay="0.30" arrival="224.00" arrivalLane="-43544179#9_1" arrivalPos="251.14" arrivalSpeed="11.78" duration="171.00" routeLength="1715.48" waitingTime="1.00" waitingCount="1" stopTime="0.00" timeLoss="27.89" rerouteNo="0" devices="tripinfo_veh85" vType="passenger" speedFactor="0.89" vaporized=""/>
    <tripinfo id="veh170" depart="106.00" departLane="48778446#2_1" departPos="0.00" departSpeed="0.00" departDelay="0.60" arrival="224.00" arrivalLane="43546789#0_1" arrivalPos="14.66" arrivalSpeed="9.91" duration="118.00" routeLength="1259.85" waitingTime="0.00" waitingCount="0" stopTime="0.00" timeLoss="26.25" rerouteNo="0" devices="tripinfo_veh170" vType="passenger" speedFactor="1.03" vaporized=""/>
    <tripinfo id="veh55" depart="35.00" departLane="-48778457#0_1" departPos="3.31" departSpeed="0.00" departDelay="0.90" arrival="225.00" arrivalLane="48736610#1_1" arrivalPos="1.24" arrivalSpeed="11.50" duration="190.00" routeLength="1457.86" waitingTime="36.00" waitingCount="2" stopTime="0.00" timeLoss="69.00" rerouteNo="0" devices="tripinfo_veh55" vType="passenger" speedFactor="0.91" vaporized=""/>
    <tripinfo id="veh1" depart="1.00" departLane="-1135772296#1_0" departPos="1.31" departSpeed="0.00" departDelay="0.38" arrival="229.00" arrivalLane="354259933#3_1" arrivalPos="57.36" arrivalSpeed="13.92" duration="228.00" routeLength="1826.69" waitingTime="34.00" waitingCount="1" stopTime="0.00" timeLoss="93.03" rerouteNo="0" devices="tripinfo_veh1" vType="passenger" speedFactor="1.08" vaporized=""/>
    <tripinfo id="veh204" depart="127.00" departLane="-647998062_1" departPos="1.03" departSpeed="0.00" departDelay="0.52" arrival="232.00" arrivalLane="-43544184#4_1" arrivalPos="17.47" arrivalSpeed="9.86" duration="105.00" routeLength="1070.29" waitingTime="0.00" waitingCount="0" stopTime="0.00" timeLoss="24.87" rerouteNo="0" devices="tripinfo_veh204" vType="delivery" speedFactor="1.01" vaporized=""/>
    <tripinfo id="veh52" depart="33.00" departLane="-222605084#7_1" departPos="30.75" departSpeed="0.00" departDelay="0.76" arrival="234.00" arrivalLane="E13_1" arrivalPos="35.68" arrivalSpeed="5.47" duration="201.00" routeLength="998.26" waitingTime="3.00" waitingCount="1" stopTime="0.00" timeLoss="20.45" rerouteNo="0" devices="tripinfo_veh52" vType="bicycle" speedFactor="1.00" vaporized=""/>
    <tripinfo id="veh88" depart="55.00" departLane="174818022#1_0" departPos="24.32" departSpeed="0.00" departDelay="0.44" arrival="234.00" arrivalLane="48736656#1_1" arrivalPos="41.98" arrivalSpeed="13.41" duration="179.00" routeLength="980.48" waitingTime="35.00" waitingCount="2" stopTime="0.00" timeLoss="80.37" rerouteNo="0" devices="tripinfo_veh88" vType="passenger" speedFactor="0.98" vaporized=""/>
    <personinfo id="ped1" depart="5.00" type="DEFAULT_PEDTYPE" speedFactor="0.83" duration="231.00" waitingTime="0.00" timeLoss="23.87" traveltime="231.00">
        <walk depart="5.00" departPos="0.00" arrival="236.00" arrivalPos="40.92" duration="231.00" routeLength="239.06" timeLoss="23.87" maxSpeed="1.15"/>
    </personinfo>
    <tripinfo id="veh123" depart="77.00" departLane="-48736616#0_1" departPos="0.29" departSpeed="0.00" departDelay="0.74" arrival="236.00" arrivalLane="48736657#0_1" arrivalPos="53.76" arrivalSpeed="12.14" duration="159.00" routeLength="631.64" waitingTime="79.00" waitingCount="1" stopTime="0.00" timeLoss="111.61" rerouteNo="0" devices="tripinfo_veh123" vType="motorcycle" speedFactor="1.04" vaporized=""/>
    <tripinfo id="veh142" depart="89.00" departLane="-647755347#0_1" departPos="64.50" departSpeed="0.00" departDelay="0.96" arrival="237.00" arrivalLane="48778498#2_1" arrivalPos="98.03" arrivalSpeed="11.95" duration="148.00" routeLength="1440.57" waitingTime="0.00" waitingCount="0" stopTime="0.00" timeLoss="23.79" rerouteNo="0" devices="tripinfo_veh142" vType="passenger" speedFactor="0.90" vaporized=""/>
    <tripinfo id="veh48" depart="30.00" departLane="43547256#0_1" departPos="354.40" departSpeed="0.00" departDelay="0.24" arrival="238.00" arrivalLane="-48797770_1" arrivalPos="20.27" arrivalSpeed="10.48" duration="208.00" routeLength="2435.43" waitingTime="0.00" waitingCount="0" stopTime="0.00" timeLoss="32.48" rerouteNo="0" devices="tripinfo_veh48" vType="passenger" speedFactor="1.02" vaporized=""/>
    <tripinfo id="veh191" depart="119.00" departLane="-222609002#2_1" departPos="5.86" departSpeed="0.00" departDelay="0.58" arrival="238.00" arrivalLane="-43544179#5_1" arrivalPos="42.26" arrivalSpeed="13.84" duration="119.00" routeLength="1235.90" waitingTime="0.00" waitingCount="0" stopTime="0.00" timeLoss="21.00" rerouteNo="0" devices="tripinfo_veh191" vType="passenger" speedFactor="1.06" vaporized=""/>
    <tripinfo id="veh258" depart="160.00" departLane="-383582853_0" departPos="1.48" departSpeed="0.00" departDelay="0.04" arrival="239.00" arrivalLane="48736620#6_2" arrivalPos="3.95" arrivalSpeed="11.19" duration="79.00" routeLength="528.01" waitingTime="15.00" waitingCount="1" stopTime="0.00" timeLoss="31.33" rerouteNo="0" devices="tripinfo_veh258" vType="delivery" speedFactor="0.97" vaporized=""/>
    <tripinfo id="veh231" depart="144.00" departLane="48778500#2_1" departPos="103.87" departSpeed="0.00" departDelay="0.78" arrival="240.00" arrivalLane="859734514#1_0" arrivalPos="56.51" arrivalSpeed="4.50" duration="96.00" routeLength="783.98" waitingTime="0.00" waitingCount="0" stopTime="0.00" timeLoss="18.76" rerouteNo="0" devices="tripinfo_veh231" vType="delivery" speedFactor="0.93" vaporized=""/>
    <tripinfo id="veh96" depart="60.00" departLane="48736613#0_1" departPos="23.35" departSpeed="0.00" departDelay="0.48" arrival="241.00" arrivalLane="40314583#2_1" arrivalPos="159.44" arrivalSpeed="15.67" duration="181.00" routeLength="2176.79" waitingTime="14.00" waitingCount="1" stopTime="0.00" timeLoss="39.83" rerouteNo="0" devices="tripinfo_veh96" vType="passenger" speedFactor="1.13" vaporized=""/>
    <tripinfo id="veh105" depart="66.00" departLane="43546460#1_1" departPos="61.65" departSpeed="0.00" departDelay="0.90" arrival="243.00" arrivalLane="48778473#1_1" arrivalPos="30.96" arrivalSpeed="14.84" duration="177.00" routeLength="2270.05" waitingTime="2.00" waitingCount="1" stopTime="0.00" timeLoss="28.49" rerouteNo="0" devices="tripinfo_veh105" vType="passenger" speedFactor="1.12" vaporized=""/>
    <tripinfo id="veh228" depart="142.00" departLane="-43544179#8_1" departPos="13.86" departSpeed="0.00" departDelay="0.64" arrival="245.00" arrivalLane="40265775#1_1" arrivalPos="76.38" arrivalSpeed="12.91" duration="103.00" routeLength="1167.90" waitingTime="0.00" waitingCount="0" stopTime="0.00" timeLoss="12.14" rerouteNo="0" devices="tripinfo_veh228" vType="passenger" speedFactor="0.94" vaporized=""/>
    <tripinfo id="veh97" depart="61.00" departLane="-258551321_1" departPos="56.91" departSpeed="0.00" departDelay="0.86" arrival="246.00" arrivalLane="-43573573#4_1" arrivalPos="73.63" arrivalSpeed="12.80" duration="185.00" routeLength="1749.27" waitingTime="21.00" waitingCount="3" stopTime="0.00" timeLoss="54.79" rerouteNo="0" devices="tripinfo_veh97" vType="passenger" speedFactor="0.99" vaporized=""/>
    <tripinfo id="veh121" depart="76.00" departLane="647741479_1" departPos="93.61" departSpeed="0.00" departDelay="0.98" arrival="246.00" arrivalLane="-40329447_1" arrivalPos="12.91" arrivalSpeed="9.36" duration="170.00" routeLength="1638.93" waitingTime="2.00" waitingCount="1" stopTime="0.00" timeLoss="29.99" rerouteNo="0" devices="tripinfo_veh121" vType="passenger" speedFactor="0.89" vaporized=""/>
    <tripinfo id="veh163" depart="102.00" departLane="40236232#0_1" departPos="4.60" departSpeed="0.00" departDelay="0.94" arrival="247.00" arrivalLane="-43546379_1" arrivalPos="170.77" arrivalSpeed="13.04" duration="145.00" routeLength="1523.50" waitingTime="4.00" waitingCount="1" stopTime="0.00" timeLoss="31.28" rerouteNo="0" devices="tripinfo_veh163" vType="passenger" speedFactor="1.00" vaporized=""/>
    <tripinfo id="veh167" depart="104.00" departLane="48736625_1" departPos="21.26" departSpeed="0.00" departDelay="0.46" arrival="249.00" arrivalLane="353939570#5_1" arrivalPos="72.46" arrivalSpeed="13.62" duration="145.00" routeLength="1510.33" waitingTime="11.00" waitingCount="2" stopTime="0.00" timeLoss="36.81" rerouteNo="0" devices="tripinfo_veh167" vType="passenger" speedFactor="1.04" vaporized=""/>
    <tripinfo id="veh219" depart="136.00" departLane="40305706#2_1" departPos="32.57" departSpeed="0.00" departDelay="0.22" arrival="251.00" arrivalLane="48778510#0_1" arrivalPos="7.19" arrivalSpeed="8.64" duration="115.00" routeLength="1326.95" waitingTime="0.00" waitingCount="0" stopTime="0.00" timeLoss="24.91" rerouteNo="0" devices="tripinfo_veh219" vType="passenger" speedFactor="1.12" vaporized=""/>
    <tripinfo id="veh208" depart="129.00" departLane="996984235_0" departPos="14.07" departSpeed="0.00" departDelay="0.04" arrival="257.00" arrivalLane="48736648#0_0" arrivalPos="0.20" arrivalSpeed="4.76" duration="128.00" routeLength="1236.41" waitingTime="3.00" waitingCount="2" stopTime="0.00" timeLoss="40.55" rerouteNo="0" devices="tripinfo_veh208" vType="passenger" speedFactor="1.07" vaporized=""/>
    <tripinfo id="veh232" depart="144.00" departLane="43544001#1_1" departPos="0.44" departSpeed="0.00" departDelay="0.16" arrival="260.00" arrivalLane="-43544179#9_1" arrivalPos="251.14" arrivalSpeed="13.28" duration="116.00" routeLength="1293.87" waitingTime="0.00" waitingCount="0" stopTime="0.00" timeLoss="17.15" rerouteNo="0" devices="tripinfo_veh232" vType="motorcycle" speedFactor="0.96" vaporized=""/>
    <tripinfo id="veh82" depart="51.00" departLane="-48736646#1_1" departPos="37.62" departSpeed="0.00" departDelay="0.16" arrival="262.00" arrivalLane="-43544184#4_1" arrivalPos="17.47" arrivalSpeed="10.12" duration="211.00" routeLength="2227.10" waitingTime="2.00" waitingCount="1" stopTime="0.00" timeLoss="44.55" rerouteNo="0" devices="tripinfo_veh82" vType="emergency" speedFactor="1.00" vaporized=""/>