<?xml version="1.0" encoding="UTF-8"?>

<!-- generated on 2025-06-12 12:00:18 by Eclipse SUMO sumo Version 1.22.0
<sumoConfiguration xmlns:xsi="http://www.w3.org/2001/XMLSchema-instance" xsi:noNamespaceSchemaLocation="http://sumo.dlr.de/xsd/sumoConfiguration.xsd">

    <input>
        <net-file value="E:/licenta/oras-mediu/2025-06-05-11-45-23/osm.net.xml"/>
        <route-files value="E:/licenta/oras-mediu/2025-06-05-11-45-23/full.rou.xml,E:/licenta/oras-mediu/2025-06-05-11-45-23/ ped.rou.xml,E:/licenta/oras-mediu/2025-06-05-11-45-23/ truck.rou.xml"/>
        <additional-files value="E:/licenta/oras-mediu/2025-06-05-11-45-23/osm.poly.xml,E:/licenta/oras-mediu/2025-06-05-11-45-23/ vtypes.xml"/>
    </input>

    <output>
        <summary-output value="E:/licenta/oras-mediu/2025-06-05-11-45-23/summary.xml"/>
        <tripinfo-output value="E:/licenta/oras-mediu/2025-06-05-11-45-23/tripinfo.xml"/>
    </output>

    <processing>
        <ignore-route-errors value="true"/>
        <tls.actuated.jam-threshold value="30"/>
    </processing>

    <routing>
        <device.rerouting.adaptation-steps value="18"/>
        <device.rerouting.adaptation-interval value="10"/>
    </routing>

    <report>
        <verbose value="true"/>
        <duration-log.statistics value="true"/>
        <no-step-log value="true"/>
    </report>

    <traci_server>
        <remote-port value="63692"/>
    </traci_server>

    <gui_only>
        <gui-settings-file value="E:/licenta/oras-mediu/2025-06-05-11-45-23/osm.view.xml"/>
    </gui_only>

</sumoConfiguration>
-->

<tripinfos xmlns:xsi="http://www.w3.org/2001/XMLSchema-instance" xsi:noNamespaceSchemaLocation="http://sumo.dlr.de/xsd/tripinfo_file.xsd">
    <tripinfo id="veh17" depart="13.00" departLane="-1250915722#3_1" departPos="5.22" departSpeed="0.00" departDelay="0.59" arrival="52.00" arrivalLane="-945793490#2_1" arrivalPos="11.86" arrivalSpeed="3.98" duration="39.00" routeLength="156.75" waitingTime="0.00" waitingCount="0" stopTime="0.00" timeLoss="6.07" rerouteNo="0" devices="tripinfo_veh17" vType="passenger" speedFactor="0.87" vaporized=""/>
    <tripinfo id="veh50" depart="37.00" departLane="-48778522_1" departPos="1.84" departSpeed="0.00" departDelay="0.50" arrival="67.00" arrivalLane="258551283#1_1" arrivalPos="55.98" arrivalSpeed="13.30" duration="30.00" routeLength="313.89" waitingTime="0.00" waitingCount="0" stopTime="0.00" timeLoss="5.62" rerouteNo="0" devices="tripinfo_veh50" vType="delivery" speedFactor="0.99" vaporized=""/>
    <tripinfo id="veh26" depart="19.00" departLane="40330557#3_1" departPos="10.66" departSpeed="0.00" departDelay="0.02" arrival="85.00" arrivalLane="48778485#1_1" arrivalPos="18.27" arrivalSpeed="12.75" duration="66.00" routeLength="647.66" waitingTime="0.00" waitingCount="0" stopTime="0.00" timeLoss="15.54" rerouteNo="0" devices="tripinfo_veh26" vType="motorcycle" speedFactor="1.02" vaporized=""/>
    <tripinfo id="veh43" depart="32.00" departLane="383582497_0" departPos="3.55" departSpeed="0.00" departDelay="0.61" arrival="85.00" arrivalLane="48778456#0_1" arrivalPos="27.19" arrivalSpeed="12.07" duration="53.00" routeLength="365.17" waitingTime="0.00" waitingCount="0" stopTime="0.00" timeLoss="11.84" rerouteNo="0" devices="tripinfo_veh43" vType="motorcycle" speedFactor="0.90" vaporized=""/>
    <personinfo id="ped9" depart="45.00" type="DEFAULT_PEDTYPE" speedFactor="0.96" duration="50.00" waitingTime="0.00" timeLoss="6.13" traveltime="50.00">
        <walk depart="45.00" departPos="0.00" arrival="95.00" arrivalPos="19.39" duration="50.00" routeLength="58.76" timeLoss="6.13" maxSpeed="1.34"/>
    </personinfo>
    <tripinfo id="veh21" depart="16.00" departLane="43573573#2_1" departPos="194.74" departSpeed="0.00" departDelay="0.67" arrival="95.00" arrivalLane="-43544179#7_1" arrivalPos="45.60" arrivalSpeed="11.21" duration="79.00" routeLength="811.10" waitingTime="0.00" waitingCount="0" stopTime="0.00" timeLoss="12.13" rerouteNo="0" devices="tripinfo_veh21" vType="passenger" speedFactor="0.89" vaporized=""/>
    <tripinfo id="veh7" depart="6.00" departLane="-43546105#3_1" departPos="20.57" departSpeed="0.00" departDelay="0.89" arrival="111.00" arrivalLane="-43544001#11_1" arrivalPos="49.44" arrivalSpeed="14.77" duration="105.00" routeLength="1100.99" waitingTime="3.00" waitingCount="1" stopTime="0.00" timeLoss="30.89" rerouteNo="0" devices="tripinfo_veh7" vType="passenger" speedFactor="1.12" vaporized=""/>
    <tripinfo id="veh23" depart="17.00" departLane="-40236203#3_1" departPos="14.45" departSpeed="0.00" departDelay="0.21" arrival="112.00" arrivalLane="-48797768_1" arrivalPos="94.07" arrivalSpeed="15.03" duration="95.00" routeLength="1068.86" waitingTime="0.00" waitingCount="0" stopTime="0.00" timeLoss="22.14" rerouteNo="0" devices="tripinfo_veh23" vType="passenger" speedFactor="1.12" vaporized=""/>
    <tripinfo id="veh113" depart="83.00" departLane="-43544197#6_1" departPos="4.27" departSpeed="0.00" departDelay="0.51" arrival="112.00" arrivalLane="647226815#1_1" arrivalPos="42.65" arrivalSpeed="15.06" duration="29.00" routeLength="250.20" waitingTime="0.00" waitingCount="0" stopTime="0.00" timeLoss="10.54" rerouteNo="0" devices="tripinfo_veh113" vType="passenger" speedFactor="1.11" vaporized=""/>
    <tripinfo id="veh4" depart="3.00" departLane="-48778449#0_1" departPos="8.05" departSpeed="0.00" departDelay="0.08" arrival="116.00" arrivalLane="647689085_1" arrivalPos="124.55" arrivalSpeed="14.08" duration="113.00" routeLength="1299.90" waitingTime="0.00" waitingCount="0" stopTime="0.00" timeLoss="18.24" rerouteNo="0" devices="tripinfo_veh4" vType="passenger" speedFactor="1.02" vaporized=""/>
    <tripinfo id="veh57" depart="42.00" departLane="143207982#1_1" departPos="1.19" departSpeed="0.00" departDelay="0.39" arrival="116.00" arrivalLane="48736612#7_1" arrivalPos="28.96" arrivalSpeed="14.13" duration="74.00" routeLength="586.62" waitingTime="3.00" waitingCount="1" stopTime="0.00" timeLoss="20.04" rerouteNo="0" devices="tripinfo_veh57" vType="passenger" speedFactor="1.06" vaporized=""/>
    <tripinfo id="veh3" depart="3.00" departLane="43546105#1_1" departPos="206.12" departSpeed="0.00" departDelay="0.81" arrival="129.00" arrivalLane="48778519_1" arrivalPos="91.88" arrivalSpeed="12.36" duration="126.00" routeLength="1325.74" waitingTime="0.00" waitingCount="0" stopTime="0.00" timeLoss="19.32" rerouteNo="0" devices="tripinfo_veh3" vType="passenger" speedFactor="0.94" vaporized=""/>
    <tripinfo id="veh91" depart="67.00" departLane="43546105#2_1" departPos="0.86" departSpeed="0.00" departDelay="0.57" arrival="141.00" arrivalLane="647262856_1" arrivalPos="411.78" arrivalSpeed="6.29" duration="74.00" routeLength="434.81" waitingTime="0.00" waitingCount="0" stopTime="0.00" timeLoss="7.45" rerouteNo="0" devices="tripinfo_veh91" vType="bicycle" speedFactor="1.18" vaporized=""/>
    <tripinfo id="veh88" depart="65.00" departLane="-354252043_1" departPos="42.08" departSpeed="0.00" departDelay="0.76" arrival="146.00" arrivalLane="-383582518#0_0" arrivalPos="49.42" arrivalSpeed="4.89" duration="81.00" routeLength="806.59" waitingTime="0.00" waitingCount="0" stopTime="0.00" timeLoss="16.80" rerouteNo="0" devices="tripinfo_veh88" vType="passenger" speedFactor="1.10" vaporized=""/>
    <personinfo id="ped16" depart="80.00" type="DEFAULT_PEDTYPE" speedFactor="1.07" duration="68.00" waitingTime="0.00" timeLoss="9.38" traveltime="68.00">
        <walk depart="80.00" departPos="0.00" arrival="148.00" arrivalPos="0.10" duration="68.00" routeLength="87.41" timeLoss="9.38" maxSpeed="1.49"/>
    </personinfo>
    <tripinfo id="veh54" depart="40.00" departLane="-43546789#3_1" departPos="75.70" departSpeed="0.00" departDelay="0.58" arrival="148.00" arrivalLane="48778475#0_1" arrivalPos="50.36" arrivalSpeed="12.51" duration="108.00" routeLength="885.62" waitingTime="21.00" waitingCount="1" stopTime="0.00" timeLoss="37.09" rerouteNo="0" devices="tripinfo_veh54" vType="passenger" speedFactor="0.95" vaporized=""/>
    <tripinfo id="veh20" depart="15.00" departLane="E9_1" departPos="28.21" departSpeed="0.00" departDelay="0.40" arrival="155.00" arrivalLane="48778489#3_2" arrivalPos="140.23" arrivalSpeed="14.52" duration="140.00" routeLength="1241.18" waitingTime="40.00" waitingCount="1" stopTime="0.00" timeLoss="59.43" rerouteNo="0" devices="tripinfo_veh20" vType="passenger" speedFactor="1.13" vaporized=""/>
    <tripinfo id="veh109" depart="80.00" departLane="48778473#1_1" departPos="24.06" departSpeed="0.00" departDelay="0.43" arrival="155.00" arrivalLane="945793485#1_1" arrivalPos="18.52" arrivalSpeed="13.27" duration="75.00" routeLength="774.17" waitingTime="0.00" waitingCount="0" stopTime="0.00" timeLoss="16.62" rerouteNo="0" devices="tripinfo_veh109" vType="passenger" speedFactor="1.01" vaporized=""/>
    <tripinfo id="veh220" depart="161.00" departLane="-48736610#3_1" departPos="33.00" departSpeed="0.00" departDelay="0.40" arrival="163.00" arrivalLane="-48736610#3_1" arrivalPos="39.72" arrivalSpeed="8.08" duration="2.00" routeLength="6.72" waitingTime="0.00" waitingCount="0" stopTime="0.00" timeLoss="1.02" rerouteNo="0" devices="tripinfo_veh220" vType="motorcycle" speedFactor="0.96" vaporized=""/>
    <tripinfo id="veh60" depart="44.00" departLane="-530106516#2_1" departPos="11.88" departSpeed="0.00" departDelay="0.20" arrival="165.00" arrivalLane="-1136301812#1_1" arrivalPos="6.69" arrivalSpeed="8.92" duration="121.00" routeLength="1066.97" waitingTime="0.00" waitingCount="0" stopTime="0.00" timeLoss="26.63" rerouteNo="0" devices="tripinfo_veh60" vType="passenger" speedFactor="0.92" vaporized=""/>
    <tripinfo id="veh74" depart="55.00" departLane="578560104#5_1" departPos="48.62" departSpeed="0.00" departDelay="0.98" arrival="168.00" arrivalLane="43546570#0_1" arrivalPos="43.31" arrivalSpeed="12.23" duration="113.00" routeLength="1011.85" waitingTime="2.00" waitingCount="1" stopTime="0.00" timeLoss="27.75" rerouteNo="0" devices="tripinfo_veh74" vType="passenger" speedFactor="0.91" vaporized=""/>
    <tripinfo id="veh114" depart="84.00" departLane="-43573547#2_1" departPos="20.28" departSpeed="0.00" departDelay="0.78" arrival="169.00" arrivalLane="48778505#1_1" arrivalPos="53.29" arrivalSpeed="12.86" duration="85.00" routeLength="907.22" waitingTime="0.00" waitingCount="0" stopTime="0.00" timeLoss="17.51" rerouteNo="0" devices="tripinfo_veh114" vType="delivery" speedFactor="1.01" vaporized=""/>
    <tripinfo id="veh61" depart="45.00" departLane="222605087#1_1" departPos="22.01" departSpeed="0.00" departDelay="0.47" arrival="176.00" arrivalLane="-33909936#2_1" arrivalPos="60.97" arrivalSpeed="14.94" duration="131.00" routeLength="1215.03" waitingTime="1.00" waitingCount="1" stopTime="0.00" timeLoss="25.29" rerouteNo="0" devices="tripinfo_veh61" vType="passenger" speedFactor="1.09" vaporized=""/>
    <tripinfo id="veh22" depart="17.00" departLane="1250915720#1_1" departPos="4.85" departSpeed="0.00" departDelay="0.94" arrival="182.00" arrivalLane="48797766#0_1" arrivalPos="21.21" arrivalSpeed="12.62" duration="165.00" routeLength="1911.14" waitingTime="0.00" waitingCount="0" stopTime="0.00" timeLoss="25.62" rerouteNo="0" devices="tripinfo_veh22" vType="passenger" speedFactor="1.15" vaporized=""/>
    <personinfo id="ped11" depart="55.00" type="DEFAULT_PEDTYPE" speedFactor="0.87" duration="134.00" waitingTime="0.00" timeLoss="14.55" traveltime="134.00">
        <walk depart="55.00" departPos="0.00" arrival="189.00" arrivalPos="70.38" duration="134.00" routeLength="144.76" timeLoss="14.55" maxSpeed="1.21"/>
    </personinfo>
    <tripinfo id="veh41" depart="30.00" departLane="40305706#2_1" departPos="51.63" departSpeed="0.00" departDelay="0.07" arrival="192.00" arrivalLane="992542694_0" arrivalPos="44.94" arrivalSpeed="5.27" duration="162.00" routeLength="1217.95" waitingTime="32.00" waitingCount="1" stopTime="0.00" timeLoss="62.68" rerouteNo="0" devices="tripinfo_veh41" vType="motorcycle" speedFactor="1.00" vaporized=""/>
    <tripinfo id="veh77" depart="57.00" departLane="-43544001#1_1" departPos="6.05" departSpeed="0.00" departDelay="0.79" arrival="194.00" arrivalLane="43546053#2_1" arrivalPos="188.18" arrivalSpeed="13.20" duration="137.00" routeLength="1464.50" waitingTime="0.00" waitingCount="0" stopTime="0.00" timeLoss="26.55" rerouteNo="0" devices="tripinfo_veh77" vType="emergency" speedFactor="1.00" vaporized=""/>
    <tripinfo id="veh71" depart="52.00" departLane="250295380#1_1" departPos="48.35" departSpeed="0.00" departDelay="0.17" arrival="200.00" arrivalLane="-383582511#1_0" arrivalPos="6.21" arrivalSpeed="2.21" duration="148.00" routeLength="1827.69" waitingTime="0.00" waitingCount="0" stopTime="0.00" timeLoss="18.03" rerouteNo="0" devices="tripinfo_veh71" vType="passenger" speedFactor="1.05" vaporized=""/>
    <tripinfo id="veh78" depart="57.00" departLane="996984134_0" departPos="15.40" departSpeed="0.00" departDelay="0.06" arrival="201.00" arrivalLane="492965073#8_2" arrivalPos="91.29" arrivalSpeed="13.47" duration="144.00" routeLength="1504.80" waitingTime="0.00" waitingCount="0" stopTime="0.00" timeLoss="21.61" rerouteNo="0" devices="tripinfo_veh78" vType="delivery" speedFactor="0.98" vaporized=""/>
    <tripinfo id="veh79" depart="58.00" departLane="40345930_1" departPos="20.32" departSpeed="0.00" departDelay="0.33" arrival="201.00" arrivalLane="-1250915720#3_1" arrivalPos="2.51" arrivalSpeed="4.97" duration="143.00" routeLength="662.88" waitingTime="60.00" waitingCount="1" stopTime="0.00" timeLoss="82.30" rerouteNo="0" devices="tripinfo_veh79" vType="passenger" speedFactor="1.06" vaporized=""/>
    <tripinfo id="veh152" depart="111.00" departLane="48736638#0_1" departPos="32.83" departSpeed="0.00" departDelay="0.04" arrival="205.00" arrivalLane="40299739#3_1" arrivalPos="81.39" arrivalSpeed="13.44" duration="94.00" routeLength="846.47" waitingTime="0.00" waitingCount="0" stopTime="0.00" timeLoss="17.17" rerouteNo="0" devices="tripinfo_veh152" vType="delivery" speedFactor="0.99" vaporized=""/>
    <tripinfo id="veh1" depart="1.00" departLane="48778480#7_2" departPos="11.77" departSpeed="0.00" departDelay="0.27" arrival="206.00" arrivalLane="-92198452#0_1" arrivalPos="23.46" arrivalSpeed="14.04" duration="205.00" routeLength="2478.75" waitingTime="15.00" waitingCount="1" stopTime="0.00" timeLoss="38.50" rerouteNo="0" devices="tripinfo_veh1" vType="passenger" speedFactor="1.08" vaporized=""/>
    <tripinfo id="veh82" depart="60.00" departLane="43546789#1_1" departPos="9.44" departSpeed="0.00" departDelay="0.14" arrival="206.00" arrivalLane="33909936#1_1" arrivalPos="134.25" arrivalSpeed="13.59" duration="146.00" routeLength="1708.80" waitingTime="0.00" waitingCount="0" stopTime="0.00" timeLoss="25.08" rerouteNo="0" devices="tripinfo_veh82" vType="passenger" speedFactor="1.03" vaporized=""/>
    <tripinfo id="veh94" depart="69.00" departLane="40345956#1_1" departPos="1.87" departSpeed="0.00" departDelay="0.38" arrival="206.00" arrivalLane="-222609002#2_1" arrivalPos="15.40" arrivalSpeed="11.82" duration="137.00" routeLength="1037.63" waitingTime="11.00" waitingCount="2" stopTime="0.00" timeLoss="43.73" rerouteNo="0" devices="tripinfo_veh94" vType="motorcycle" speedFactor="0.98" vaporized=""/>
    <tripinfo id="veh32" depart="24.00" departLane="-222609002#1_1" departPos="17.56" departSpeed="0.00" departDelay="0.64" arrival="209.00" arrivalLane="-1250915721#0_1" arrivalPos="14.93" arrivalSpeed="5.20" duration="185.00" routeLength="856.41" waitingTime="82.00" waitingCount="1" stopTime="0.00" timeLoss="105.33" rerouteNo="0" devices="tripinfo_veh32" vType="passenger" speedFactor="1.07" vaporized=""/>
    <tripinfo id="veh256" depart="187.00" departLane="-48736650#2_1" departPos="9.87" departSpeed="0.00" departDelay="0.12" arrival="214.00" arrivalLane="48736666#2_1" arrivalPos="56.15" arrivalSpeed="14.67" duration="27.00" routeLength="282.47" waitingTime="0.00" waitingCount="0" stopTime="0.00" timeLoss="7.36" rerouteNo="0" devices="tripinfo_veh256" vType="passenger" speedFactor="1.09" vaporized=""/>
    <tripinfo id="veh6" depart="5.00" departLane="43546057_1" departPos="150.46" departSpeed="0.00" departDelay="0.62" arrival="220.00" arrivalLane="671642318#2_1" arrivalPos="31.59" arrivalSpeed="11.83" duration="215.00" routeLength="2396.29" waitingTime="0.00" waitingCount="0" stopTime="0.00" timeLoss="23.79" rerouteNo="0" devices="tripinfo_veh6" vType="passenger" speedFactor="0.92" vaporized=""/>
    <tripinfo id="veh217" depart="159.00" departLane="-43546109_1" departPos="83.66" departSpeed="0.00" departDelay="0.59" arrival="220.00" arrivalLane="43573573#1_1" arrivalPos="2.52" arrivalSpeed="15.23" duration="61.00" routeLength="718.26" waitingTime="0.00" waitingCount="0" stopTime="0.00" timeLoss="13.38" rerouteNo="0" devices="tripinfo_veh217" vType="delivery" speedFactor="1.13" vaporized=""/>
    <tripinfo id="veh115" depart="84.00" departLane="222609002#0_1" departPos="45.17" departSpeed="0.00" departDelay="0.05" arrival="225.00" arrivalLane="43547017#3_1" arrivalPos="48.19" arrivalSpeed="14.48" duration="141.00" routeLength="1561.31" waitingTime="1.00" waitingCount="1" stopTime="0.00" timeLoss="30.43" rerouteNo="0" devices="tripinfo_veh115" vType="delivery" speedFactor="1.06" vaporized=""/>
    <tripinfo id="veh131" depart="96.00" departLane="-40299241#2_1" departPos="31.90" departSpeed="0.00" departDelay="0.37" arrival="226.00" arrivalLane="48736618_1" arrivalPos="45.61" arrivalSpeed="11.36" duration="130.00" routeLength="1290.46" waitingTime="0.00" waitingCount="0" stopTime="0.00" timeLoss="23.05" rerouteNo="0" devices="tripinfo_veh131" vType="motorcycle" speedFactor="0.91" vaporized=""/>
    <tripinfo id="veh56" depart="41.00" departLane="33909936#1_1" departPos="102.17" departSpeed="0.00" departDelay="0.12" arrival="227.00" arrivalLane="E23_1" arrivalPos="246.50" arrivalSpeed="12.97" duration="186.00" routeLength="2244.32" waitingTime="0.00" waitingCount="0" stopTime="0.00" timeLoss="16.73" rerouteNo="0" devices="tripinfo_veh56" vType="delivery" speedFactor="0.96" vaporized=""/>
    <tripinfo id="veh92" depart="68.00" departLane="40330583#1_1" departPos="214.70" departSpeed="0.00" departDelay="0.84" arrival="227.00" arrivalLane="43547017#3_1" arrivalPos="48.19" arrivalSpeed="14.51" duration="159.00" routeLength="1897.45" waitingTime="0.00" waitingCount="0" stopTime="0.00" timeLoss="34.19" rerouteNo="0" devices="tripinfo_veh92" vType="passenger" speedFactor="1.13" vaporized=""/>
    <tripinfo id="veh37" depart="28.00" departLane="-48736639#0_1" departPos="37.20" departSpeed="0.00" departDelay="0.99" arrival="229.00" arrivalLane="-1205541344_0" arrivalPos="82.96" arrivalSpeed="3.95" duration="201.00" routeLength="1978.12" waitingTime="0.00" waitingCount="0" stopTime="0.00" timeLoss="23.95" rerouteNo="0" devices="tripinfo_veh37" vType="passenger" speedFactor="0.88" vaporized=""/>
    <tripinfo id="veh116" depart="85.00" departLane="-43544179#2_1" departPos="96.08" departSpeed="0.00" departDelay="0.32" arrival="231.00" arrivalLane="-289113778#1_1" arrivalPos="394.53" arrivalSpeed="16.25" duration="146.00" routeLength="1968.97" waitingTime="0.00" waitingCount="0" stopTime="0.00" timeLoss="25.03" rerouteNo="0" devices="tripinfo_veh116" vType="passenger" speedFactor="1.21" vaporized=""/>
    <tripinfo id="veh200" depart="146.00" departLane="1250915720#6_1" departPos="9.77" departSpeed="0.00" departDelay="0.00" arrival="231.00" arrivalLane="48778485#1_1" arrivalPos="18.27" arrivalSpeed="11.74" duration="85.00" routeLength="703.00" waitingTime="4.00" waitingCount="1" stopTime="0.00" timeLoss="27.08" rerouteNo="0" devices="tripinfo_veh200" vType="passenger" speedFactor="1.07" vaporized=""/>
    <tripinfo id="veh63" depart="46.00" departLane="-40236228#1_1" departPos="17.12" departSpeed="0.00" departDelay="0.01" arrival="233.00" arrivalLane="-1250915722#2_1" arrivalPos="3.43" arrivalSpeed="4.37" duration="187.00" routeLength="1422.35" waitingTime="19.00" waitingCount="1" stopTime="0.00" timeLoss="56.45" rerouteNo="0" devices="tripinfo_veh63" vType="passenger" speedFactor="1.02" vaporized=""/>
    <tripinfo id="veh164" depart="120.00" departLane="-48797774_1" departPos="22.34" departSpeed="0.00" departDelay="0.28" arrival="236.00" arrivalLane="-40330557#3_1" arrivalPos="31.45" arrivalSpeed="11.62" duration="116.00" routeLength="1201.44" waitingTime="0.00" waitingCount="0" stopTime="0.00" timeLoss="13.39" rerouteNo="0" devices="tripinfo_veh164" vType="passenger" speedFactor="0.87" vaporized=""/>
    <tripinfo id="veh81" depart="60.00" departLane="1136279381_1" departPos="50.02" departSpeed="0.00" departDelay="0.87" arrival="237.00" arrivalLane="222609004#0_1" arrivalPos="29.46" arrivalSpeed="12.93" duration="177.00" routeLength="1998.94" waitingTime="14.00" waitingCount="1" stopTime="0.00" timeLoss="38.10" rerouteNo="0" devices="tripinfo_veh81" vType="passenger" speedFactor="1.08" vaporized=""/>
    <tripinfo id="veh85" depart="63.00" departLane="43573769#1_1" departPos="53.95" departSpeed="0.00" departDelay="0.95" arrival="237.00" arrivalLane="-48778479_1" arrivalPos="432.92" arrivalSpeed="16.37" duration="174.00" routeLength="2593.86" waitingTime="0.00" waitingCount="0" stopTime="0.00" timeLoss="22.00" rerouteNo="0" devices="tripinfo_veh85" vType="passenger" speedFactor="1.25" vaporized=""/>
    <tripinfo id="veh29" depart="22.00" departLane="43544184#3_1" departPos="48.60" departSpeed="0.00" departDelay="0.83" arrival="238.00" arrivalLane="-48778498#1_1" arrivalPos="23.69" arrivalSpeed="3.10" duration="216.00" routeLength="902.98" waitingTime="2.00" waitingCount="1" stopTime="0.00" timeLoss="21.02" rerouteNo="0" devices="tripinfo_veh29" vType="bicycle" speedFactor="0.83" vaporized=""/>
    <tripinfo id="veh67" depart="49.00" departLane="-48736647#0_1" departPos="43.67" departSpeed="0.00" departDelay="0.09" arrival="242.00" arrivalLane="-48778508#1_1" arrivalPos="98.43" arrivalSpeed="13.39" duration="193.00" routeLength="1738.17" waitingTime="29.00" waitingCount="3" stopTime="0.00" timeLoss="61.41" rerouteNo="0" devices="tripinfo_veh67" vType="passenger" speedFactor="0.98" vaporized=""/>
    <tripinfo id="veh244" depart="179.00" departLane="48778473#0_1" departPos="9.33" departSpeed="0.00" departDelay="0.88" arrival="243.00" arrivalLane="647755347#1_1" arrivalPos="34.98" arrivalSpeed="12.38" duration="64.00" routeLength="566.63" waitingTime="0.00" waitingCount="0" stopTime="0.00" timeLoss="17.05" rerouteNo="0" devices="tripinfo_veh244" vType="passenger" speedFactor="0.97" vaporized=""/>
    <tripinfo id="veh276" depart="202.00" departLane="1136119743#0_1" departPos="15.31" departSpeed="0.00" departDelay="0.52" arrival="243.00" arrivalLane="40330575#4_1" arrivalPos="66.37" arrivalSpeed="12.36" duration="41.00" routeLength="269.38" waitingTime="1.00" waitingCount="1" stopTime="0.00" timeLoss="9.74" rerouteNo="0" devices="tripinfo_veh276" vType="passenger" speedFactor="0.96" vaporized=""/>
    <tripinfo id="veh298" depart="218.00" departLane="1251292611_1" departPos="0.36" departSpeed="0.00" departDelay="0.46" arrival="243.00" arrivalLane="-222605087#2_1" arrivalPos="14.86" arrivalSpeed="4.49" duration="25.00" routeLength="113.80" waitingTime="0.00" waitingCount="0" stopTime="0.00" timeLoss="4.28" rerouteNo="0" devices="tripinfo_veh298" vType="passenger" speedFactor="0.99" vaporized=""/>
    <tripinfo id="veh5" depart="4.00" departLane="43546648#5_1" departPos="13.78" departSpeed="0.00" departDelay="0.35" arrival="245.00" arrivalLane="222605087#5_1" arrivalPos="44.15" arrivalSpeed="5.16" duration="241.00" routeLength="1774.42" waitingTime="47.00" waitingCount="1" stopTime="0.00" timeLoss="82.90" rerouteNo="0" devices="tripinfo_veh5" vType="delivery" speedFactor="1.05" vaporized=""/>
    <personinfo id="ped32" depart="160.00" type="DEFAULT_PEDTYPE" speedFactor="1.05" duration="88.00" waitingTime="0.00" timeLoss="9.18" traveltime="88.00">
        <walk depart="160.00" departPos="0.00" arrival="248.00" arrivalPos="10.33" duration="88.00" routeLength="114.92" timeLoss="9.18" maxSpeed="1.46"/>
    </personinfo>
    <tripinfo id="veh103" depart="76.00" departLane="-143207982#8_1" departPos="24.21" departSpeed="0.00" departDelay="0.81" arrival="249.00" arrivalLane="250295383#6_1" arrivalPos="25.71" arrivalSpeed="14.67" duration="173.00" routeLength="1629.73" waitingTime="21.00" waitingCount="3" stopTime="0.00" timeLoss="65.09" rerouteNo="0" devices="tripinfo_veh103" vType="passenger" speedFactor="1.12" vaporized=""/>
    <personinfo id="ped4" depart="20.00" type="DEFAULT_PEDTYPE" speedFactor="0.86" duration="230.00" waitingTime="0.00" timeLoss="23.26" traveltime="230.00">
        <walk depart="20.00" departPos="0.00" arrival="250.00" arrivalPos="84.26" duration="230.00" routeLength="247.57" timeLoss="23.26" maxSpeed="1.20"/>
    </personinfo>
    <tripinfo id="veh190" depart="139.00" departLane="1232511776#0_1" departPos="82.02" departSpeed="0.00" departDelay="0.30" arrival="252.00" arrivalLane="-40265775#1_1" arrivalPos="75.00" arrivalSpeed="14.07" duration="113.00" routeLength="1337.56" waitingTime="0.00" waitingCount="0" stopTime="0.00" timeLoss="21.32" rerouteNo="0" devices="tripinfo_veh190" vType="delivery" speedFactor="1.08" vaporized=""/>
    <tripinfo id="veh112" depart="82.00" departLane="1054663937_1" departPos="15.89" departSpeed="0.00" departDelay="0.24" arrival="258.00" arrivalLane="40305706#0_1" arrivalPos="32.26" arrivalSpeed="11.46" duration="176.00" routeLength="1506.70" waitingTime="41.00" waitingCount="1" stopTime="0.00" timeLoss="69.04" rerouteNo="0" devices="tripinfo_veh112" vType="passenger" speedFactor="1.06" vaporized=""/>
    <tripinfo id="veh171" depart="125.00" departLane="43546570#0_1" departPos="33.07" departSpeed="0.00" departDelay="0.17" arrival="259.00" arrivalLane="40269009#2_1" arrivalPos="65.05" arrivalSpeed="12.67" duration="134.00" routeLength="1352.62" waitingTime="0.00" waitingCount="0" stopTime="0.00" timeLoss="27.38" rerouteNo="0" devices="tripinfo_veh171" vType="passenger" speedFactor="0.98" vaporized=""/>
    <tripinfo id="veh137" depart="101.00" departLane="43547296#1_1" departPos="9.27" departSpeed="0.00" departDelay="0.99" arrival="261.00" arrivalLane="647226814#1_1" arrivalPos="38.44" arrivalSpeed="12.17" duration="160.00" routeLength="1670.81" waitingTime="6.00" waitingCount="1" stopTime="0.00" timeLoss="29.37" rerouteNo="0" devices="tripinfo_veh137" vType="passenger" speedFactor="0.96" vaporized=""/>
    <tripinfo id="veh187" depart="137.00" departLane="383582497_0" departPos="25.62" departSpeed="0.00" departDelay="0.49" arrival="261.00" arrivalLane="48778475#1_1" arrivalPos="25.99" arrivalSpeed="5.47" duration="124.00" routeLength="630.73" waitingTime="1.00" waitingCount="1" stopTime="0.00" timeLoss="13.45" rerouteNo="0" devices="tripinfo_veh187" vType="bicycle" speedFactor="1.04" vaporized=""/>
    <personinfo id="ped23" depart="115.00" type="DEFAULT_PEDTYPE" speedFactor="1.06" duration="147.00" waitingTime="0.00" timeLoss="14.31" traveltime="147.00">
        <walk depart="115.00" departPos="0.00" arrival="262.00" arrivalPos="0.30" duration="147.00" routeLength="195.76" timeLoss="14.31" maxSpeed="1.48"/>
    </personinfo>
    <tripinfo id="veh8" depart="6.00" departLane="996984235_0" departPos="4.13" departSpeed="0.00" departDelay="0.16" arrival="262.00" arrivalLane="647998063#3_1" arrivalPos="114.77" arrivalSpeed="11.72" duration="256.00" routeLength="2875.39" waitingTime="0.00" waitingCount="0" stopTime="0.00" timeLoss="21.89" rerouteNo="0" devices="tripinfo_veh8" vType="passenger" speedFactor="0.90" vaporized=""/>
    <tripinfo id="veh156" depart="114.00" departLane="40314883_1" departPos="11.17" departSpeed="0.00" departDelay="0.12" arrival="263.00" arrivalLane="43546343#0_1" arrivalPos="136.61" arrivalSpeed="12.45" duration="149.00" routeLength="1561.68" waitingTime="2.00" waitingCount="1" stopTime="0.00" timeLoss="21.86" rerouteNo="0" devices="tripinfo_veh156" vType="passenger" speedFactor="0.90" vaporized=""/>
    <tripinfo id="veh168" depart="123.00" departLane="-48778512_1" departPos="43.69" departSpeed="0.00" departDelay="0.36" arrival="264.00" arrivalLane="40305706#0_1" arrivalPos="32.26" arrivalSpeed="13.14" duration="141.00" routeLength="1579.18" waitingTime="0.00" waitingCount="0" stopTime="0.00" timeLoss="21.52" rerouteNo="0" devices="tripinfo_veh168" vType="emergency" speedFactor="1.00" vaporized=""/>
    <tripinfo id="veh87" depart="64.00" departLane="48797774_1" departPos="71.32" departSpeed="0.00" departDelay="0.49" arrival="266.00" arrivalLane="43546789#2_1" arrivalPos="71.56" arrivalSpeed="13.11" duration="202.00" routeLength="2284.64" waitingTime="0.00" waitingCount="0" stopTime="0.00" timeLoss="30.53" rerouteNo="0" devices="tripinfo_veh87" vType="delivery" speedFactor="1.01" vaporized=""/>
    <tripinfo id="veh64" depart="47.00" departLane="-92198453#2_1" departPos="34.64" departSpeed="0.00" departDelay="0.28" arrival="267.00" arrivalLane="-383582497_0" arrivalPos="31.03" arrivalSpeed="2.71" duration="220.00" routeLength="2440.25" waitingTime="15.00" waitingCount="1" stopTime="0.00" timeLoss="45.18" rerouteNo="0" devices="tripinfo_veh64" vType="passenger" speedFactor="1.08" vaporized=""/>
    <tripinfo id="veh44" depart="33.00" departLane="-647347140#2_1" departPos="10.90" departSpeed="0.00" departDelay="0.88" arrival="270.00" arrivalLane="-48736607#1_1" arrivalPos="193.73" arrivalSpeed="13.35" duration="237.00" routeLength="2708.60" waitingTime="5.00" waitingCount="1" stopTime="0.00" timeLoss="35.73" rerouteNo="0" devices="tripinfo_veh44" vType="delivery" speedFactor="0.98" vaporized=""/>