<?xml version="1.0" encoding="UTF-8"?>

<!-- generated on 2025-06-12 11:23:51 by Eclipse SUMO sumo Version 1.22.0
<sumoConfiguration xmlns:xsi="http://www.w3.org/2001/XMLSchema-instance" xsi:noNamespaceSchemaLocation="http://sumo.dlr.de/xsd/sumoConfiguration.xsd">

    <input>
        <net-file value="E:/licenta/oras-mediu/2025-06-05-11-45-23/osm.net.xml"/>
        <route-files value="E:/licenta/oras-mediu/2025-06-05-11-45-23/full.rou.xml,E:/licenta/oras-mediu/2025-06-05-11-45-23/ ped.rou.xml,E:/licenta/oras-mediu/2025-06-05-11-45-23/ truck.rou.xml"/>
        <additional-files value="E:/licenta/oras-mediu/2025-06-05-11-45-23/osm.poly.xml,E:/licenta/oras-mediu/2025-06-05-11-45-23/ vtypes.xml"/>
    </input>

    <output>
        <summary-output value="E:/licenta/oras-mediu/2025-06-05-11-45-23/summary.xml"/>
        <tripinfo-output value="E:/licenta/oras-mediu/2025-06-05-11-45-23/tripinfo.xml"/>
    </output>

    <processing>
        <ignore-route-errors value="true"/>
        <tls.actuated.jam-threshold value="30"/>
    </processing>

    <routing>
        <device.rerouting.adaptation-steps value="18"/>
        <device.rerouting.adaptation-interval value="10"/>
    </routing>

    <report>
        <verbose value="true"/>
        <duration-log.statistics value="true"/>
        <no-step-log value="true"/>
    </report>

    <traci_server>
        <remote-port value="62519"/>
    </traci_server>

    <gui_only>
        <gui-settings-file value="E:/licenta/oras-mediu/2025-06-05-11-45-23/osm.view.xml"/>
    </gui_only>

</sumoConfiguration>
-->

<tripinfos xmlns:xsi="http://www.w3.org/2001/XMLSchema-instance" xsi:noNamespaceSchemaLocation="http://sumo.dlr.de/xsd/tripinfo_file.xsd">
    <tripinfo id="veh2" depart="2.00" departLane="143207982#3_1" departPos="14.90" departSpeed="0.00" departDelay="0.70" arrival="62.00" arrivalLane="-647677163_1" arrivalPos="79.04" arrivalSpeed="14.89" duration="60.00" routeLength="613.90" waitingTime="0.00" waitingCount="0" stopTime="0.00" timeLoss="16.52" rerouteNo="0" devices="tripinfo_veh2" vType="passenger" speedFactor="1.08" vaporized=""/>
    <tripinfo id="veh31" depart="21.00" departLane="-48778511_1" departPos="50.86" departSpeed="0.00" departDelay="0.85" arrival="71.00" arrivalLane="43544588#1_1" arrivalPos="38.30" arrivalSpeed="13.39" duration="50.00" routeLength="423.01" waitingTime="0.00" waitingCount="0" stopTime="0.00" timeLoss="18.18" rerouteNo="0" devices="tripinfo_veh31" vType="passenger" speedFactor="1.10" vaporized=""/>
    <tripinfo id="veh7" depart="5.00" departLane="43544197#4_1" departPos="19.37" departSpeed="0.00" departDelay="0.45" arrival="72.00" arrivalLane="48778525#1_1" arrivalPos="14.99" arrivalSpeed="15.27" duration="67.00" routeLength="728.55" waitingTime="0.00" waitingCount="0" stopTime="0.00" timeLoss="16.46" rerouteNo="0" devices="tripinfo_veh7" vType="passenger" speedFactor="1.12" vaporized=""/>
    <tripinfo id="veh1" depart="1.00" departLane="-43544179#12_1" departPos="3.50" departSpeed="0.00" departDelay="0.35" arrival="80.00" arrivalLane="671642291_1" arrivalPos="61.56" arrivalSpeed="14.08" duration="79.00" routeLength="883.84" waitingTime="0.00" waitingCount="0" stopTime="0.00" timeLoss="16.42" rerouteNo="0" devices="tripinfo_veh1" vType="passenger" speedFactor="1.08" vaporized=""/>
    <tripinfo id="veh125" depart="82.00" departLane="-48736625_1" departPos="40.36" departSpeed="0.00" departDelay="0.75" arrival="95.00" arrivalLane="48736624#2_1" arrivalPos="0.20" arrivalSpeed="12.85" duration="13.00" routeLength="116.35" waitingTime="0.00" waitingCount="0" stopTime="0.00" timeLoss="2.72" rerouteNo="0" devices="tripinfo_veh125" vType="motorcycle" speedFactor="1.04" vaporized=""/>
    <tripinfo id="veh4" depart="3.00" departLane="-40309190_1" departPos="15.19" departSpeed="0.00" departDelay="0.40" arrival="102.00" arrivalLane="40269009#2_1" arrivalPos="65.05" arrivalSpeed="13.23" duration="99.00" routeLength="1013.44" waitingTime="0.00" waitingCount="0" stopTime="0.00" timeLoss="22.57" rerouteNo="0" devices="tripinfo_veh4" vType="passenger" speedFactor="1.02" vaporized=""/>
    <tripinfo id="veh78" depart="51.00" departLane="223883703_0" departPos="81.47" departSpeed="0.00" departDelay="0.30" arrival="103.00" arrivalLane="-353939570#10_1" arrivalPos="344.65" arrivalSpeed="11.53" duration="52.00" routeLength="554.76" waitingTime="0.00" waitingCount="0" stopTime="0.00" timeLoss="4.55" rerouteNo="0" devices="tripinfo_veh78" vType="passenger" speedFactor="0.86" vaporized=""/>
    <tripinfo id="veh149" depart="97.00" departLane="48778429#3_1" departPos="178.78" departSpeed="0.00" departDelay="0.15" arrival="107.00" arrivalLane="383582499#1_1" arrivalPos="69.95" arrivalSpeed="14.05" duration="10.00" routeLength="104.50" waitingTime="0.00" waitingCount="0" stopTime="0.00" timeLoss="2.16" rerouteNo="0" devices="tripinfo_veh149" vType="motorcycle" speedFactor="1.08" vaporized=""/>
    <tripinfo id="veh68" depart="45.00" departLane="48778517#0_1" departPos="17.31" departSpeed="0.00" departDelay="0.80" arrival="121.00" arrivalLane="43573547#3_1" arrivalPos="51.38" arrivalSpeed="11.62" duration="76.00" routeLength="743.04" waitingTime="0.00" waitingCount="0" stopTime="0.00" timeLoss="11.30" rerouteNo="0" devices="tripinfo_veh68" vType="passenger" speedFactor="0.90" vaporized=""/>
    <personinfo id="ped8" depart="40.00" type="DEFAULT_PEDTYPE" speedFactor="0.93" duration="84.00" waitingTime="0.00" timeLoss="10.84" traveltime="84.00">
        <walk depart="40.00" departPos="0.00" arrival="124.00" arrivalPos="1.34" duration="84.00" routeLength="94.53" timeLoss="10.84" maxSpeed="1.29"/>
    </personinfo>
    <tripinfo id="veh21" depart="14.00" departLane="222605084#9_1" departPos="1.26" departSpeed="0.00" departDelay="0.35" arrival="126.00" arrivalLane="859734514#1_0" arrivalPos="56.51" arrivalSpeed="5.70" duration="112.00" routeLength="958.92" waitingTime="0.00" waitingCount="0" stopTime="0.00" timeLoss="13.14" rerouteNo="0" devices="tripinfo_veh21" vType="passenger" speedFactor="1.03" vaporized=""/>
    <tripinfo id="veh80" depart="52.00" departLane="492965073#10_1" departPos="8.70" departSpeed="0.00" departDelay="0.00" arrival="133.00" arrivalLane="40305706#1_1" arrivalPos="57.88" arrivalSpeed="14.86" duration="81.00" routeLength="820.64" waitingTime="10.00" waitingCount="1" stopTime="0.00" timeLoss="28.24" rerouteNo="0" devices="tripinfo_veh80" vType="passenger" speedFactor="1.14" vaporized=""/>
    <tripinfo id="veh82" depart="54.00" departLane="40236093_1" departPos="33.71" departSpeed="0.00" departDelay="0.70" arrival="140.00" arrivalLane="48736640#0_1" arrivalPos="55.87" arrivalSpeed="13.84" duration="86.00" routeLength="888.50" waitingTime="0.00" waitingCount="0" stopTime="0.00" timeLoss="17.29" rerouteNo="0" devices="tripinfo_veh82" vType="emergency" speedFactor="1.00" vaporized=""/>
    <tripinfo id="veh85" depart="56.00" departLane="-304695350#0_1" departPos="0.17" departSpeed="0.00" departDelay="0.75" arrival="140.00" arrivalLane="48778449#1_1" arrivalPos="70.68" arrivalSpeed="11.57" duration="84.00" routeLength="482.82" waitingTime="22.00" waitingCount="2" stopTime="0.00" timeLoss="40.62" rerouteNo="0" devices="tripinfo_veh85" vType="passenger" speedFactor="0.89" vaporized=""/>
    <tripinfo id="veh87" depart="57.00" departLane="-1250915721#1_1" departPos="2.23" departSpeed="0.00" departDelay="0.45" arrival="142.00" arrivalLane="-40334244#2_1" arrivalPos="5.56" arrivalSpeed="9.21" duration="85.00" routeLength="843.73" waitingTime="0.00" waitingCount="0" stopTime="0.00" timeLoss="11.36" rerouteNo="0" devices="tripinfo_veh87" vType="passenger" speedFactor="1.03" vaporized=""/>
    <tripinfo id="veh182" depart="119.00" departLane="-40330571#2_1" departPos="17.53" departSpeed="0.00" departDelay="0.70" arrival="142.00" arrivalLane="-40330557#0_1" arrivalPos="52.98" arrivalSpeed="13.04" duration="23.00" routeLength="256.42" waitingTime="0.00" waitingCount="0" stopTime="0.00" timeLoss="3.79" rerouteNo="0" devices="tripinfo_veh182" vType="passenger" speedFactor="0.97" vaporized=""/>
    <tripinfo id="veh167" depart="109.00" departLane="-647621858_0" departPos="66.62" departSpeed="0.00" departDelay="0.45" arrival="143.00" arrivalLane="40299739#3_1" arrivalPos="81.39" arrivalSpeed="10.91" duration="34.00" routeLength="257.85" waitingTime="0.00" waitingCount="0" stopTime="0.00" timeLoss="6.85" rerouteNo="0" devices="tripinfo_veh167" vType="passenger" speedFactor="0.83" vaporized=""/>
    <tripinfo id="veh30" depart="20.00" departLane="-48736650#2_1" departPos="0.76" departSpeed="0.00" departDelay="0.50" arrival="146.00" arrivalLane="-48736638#2_1" arrivalPos="32.61" arrivalSpeed="11.88" duration="126.00" routeLength="847.96" waitingTime="16.00" waitingCount="1" stopTime="0.00" timeLoss="39.20" rerouteNo="0" devices="tripinfo_veh30" vType="passenger" speedFactor="0.94" vaporized=""/>
    <tripinfo id="veh98" depart="64.00" departLane="353939585#1_2" departPos="160.37" departSpeed="0.00" departDelay="0.30" arrival="152.00" arrivalLane="-578560104#6_1" arrivalPos="101.21" arrivalSpeed="15.02" duration="88.00" routeLength="1118.48" waitingTime="0.00" waitingCount="0" stopTime="0.00" timeLoss="15.23" rerouteNo="0" devices="tripinfo_veh98" vType="passenger" speedFactor="1.13" vaporized=""/>
    <personinfo id="ped5" depart="25.00" type="DEFAULT_PEDTYPE" speedFactor="0.94" duration="128.00" waitingTime="0.00" timeLoss="13.70" traveltime="128.00">
        <walk depart="25.00" departPos="0.00" arrival="153.00" arrivalPos="30.00" duration="128.00" routeLength="148.45" timeLoss="13.70" maxSpeed="1.30"/>
    </personinfo>
    <tripinfo id="veh128" depart="84.00" departLane="-48736655_1" departPos="12.42" departSpeed="0.00" departDelay="0.80" arrival="154.00" arrivalLane="48736621#2_1" arrivalPos="13.16" arrivalSpeed="12.50" duration="70.00" routeLength="383.16" waitingTime="21.00" waitingCount="1" stopTime="0.00" timeLoss="37.22" rerouteNo="0" devices="tripinfo_veh128" vType="passenger" speedFactor="0.92" vaporized=""/>
    <tripinfo id="veh60" depart="39.00" departLane="48736623_1" departPos="75.08" departSpeed="0.00" departDelay="0.00" arrival="163.00" arrivalLane="-40299241#0_1" arrivalPos="57.32" arrivalSpeed="12.63" duration="124.00" routeLength="1294.70" waitingTime="0.00" waitingCount="0" stopTime="0.00" timeLoss="20.88" rerouteNo="0" devices="tripinfo_veh60" vType="passenger" speedFactor="0.95" vaporized=""/>
    <tripinfo id="veh59" depart="39.00" departLane="1250915726_1" departPos="3.56" departSpeed="0.00" departDelay="0.65" arrival="165.00" arrivalLane="40330571#2_1" arrivalPos="24.41" arrivalSpeed="11.32" duration="126.00" routeLength="777.80" waitingTime="0.00" waitingCount="0" stopTime="0.00" timeLoss="18.07" rerouteNo="0" devices="tripinfo_veh59" vType="passenger" speedFactor="0.91" vaporized=""/>
    <tripinfo id="veh136" depart="89.00" departLane="48778518_1" departPos="19.65" departSpeed="0.00" departDelay="0.60" arrival="165.00" arrivalLane="43546935#3_1" arrivalPos="13.61" arrivalSpeed="12.36" duration="76.00" routeLength="757.31" waitingTime="0.00" waitingCount="0" stopTime="0.00" timeLoss="15.30" rerouteNo="0" devices="tripinfo_veh136" vType="passenger" speedFactor="0.97" vaporized=""/>
    <tripinfo id="veh20" depart="13.00" departLane="-48736641_1" departPos="16.28" departSpeed="0.00" departDelay="0.00" arrival="167.00" arrivalLane="994066252#2_0" arrivalPos="0.84" arrivalSpeed="3.98" duration="154.00" routeLength="1422.45" waitingTime="2.00" waitingCount="1" stopTime="0.00" timeLoss="22.25" rerouteNo="0" devices="tripinfo_veh20" vType="passenger" speedFactor="0.87" vaporized=""/>
    <tripinfo id="veh110" depart="72.00" departLane="43573573#1_1" departPos="1.01" departSpeed="0.00" departDelay="0.50" arrival="167.00" arrivalLane="43546935#3_1" arrivalPos="13.61" arrivalSpeed="13.55" duration="95.00" routeLength="1064.88" waitingTime="0.00" waitingCount="0" stopTime="0.00" timeLoss="21.95" rerouteNo="0" devices="tripinfo_veh110" vType="motorcycle" speedFactor="1.10" vaporized=""/>
    <tripinfo id="veh57" depart="38.00" departLane="-40345930_1" departPos="1.78" departSpeed="0.00" departDelay="0.95" arrival="174.00" arrivalLane="250295383#0_1" arrivalPos="29.94" arrivalSpeed="13.59" duration="136.00" routeLength="1673.49" waitingTime="0.00" waitingCount="0" stopTime="0.00" timeLoss="13.62" rerouteNo="0" devices="tripinfo_veh57" vType="delivery" speedFactor="0.99" vaporized=""/>
    <tripinfo id="veh115" depart="75.00" departLane="92198452#2_1" departPos="25.99" departSpeed="0.00" departDelay="0.25" arrival="174.00" arrivalLane="-222605084#3_1" arrivalPos="1.86" arrivalSpeed="5.42" duration="99.00" routeLength="889.37" waitingTime="0.00" waitingCount="0" stopTime="0.00" timeLoss="12.04" rerouteNo="0" devices="tripinfo_veh115" vType="passenger" speedFactor="1.01" vaporized=""/>
    <tripinfo id="veh56" depart="37.00" departLane="-48778510#1_1" departPos="51.50" departSpeed="0.00" departDelay="0.60" arrival="178.00" arrivalLane="48778510#1_1" arrivalPos="102.69" arrivalSpeed="4.99" duration="141.00" routeLength="703.73" waitingTime="0.00" waitingCount="0" stopTime="0.00" timeLoss="13.48" rerouteNo="0" devices="tripinfo_veh56" vType="bicycle" speedFactor="1.00" vaporized=""/>
    <tripinfo id="veh74" depart="49.00" departLane="-48778475#2_1" departPos="23.12" departSpeed="0.00" departDelay="0.90" arrival="180.00" arrivalLane="-43573573#1_1" arrivalPos="2.53" arrivalSpeed="5.34" duration="131.00" routeLength="1419.41" waitingTime="0.00" waitingCount="0" stopTime="0.00" timeLoss="19.56" rerouteNo="0" devices="tripinfo_veh74" vType="motorcycle" speedFactor="0.94" vaporized=""/>
    <tripinfo id="veh34" depart="23.00" departLane="-48778521#1_1" departPos="2.81" departSpeed="0.00" departDelay="0.90" arrival="182.00" arrivalLane="48778493#2_1" arrivalPos="44.65" arrivalSpeed="13.23" duration="159.00" routeLength="1692.55" waitingTime="6.00" waitingCount="1" stopTime="0.00" timeLoss="31.39" rerouteNo="0" devices="tripinfo_veh34" vType="passenger" speedFactor="1.03" vaporized=""/>
    <tripinfo id="veh53" depart="35.00" departLane="647998063#1_1" departPos="6.36" departSpeed="0.00" departDelay="0.55" arrival="187.00" arrivalLane="48778510#1_1" arrivalPos="102.69" arrivalSpeed="12.97" duration="152.00" routeLength="1550.07" waitingTime="0.00" waitingCount="0" stopTime="0.00" timeLoss="34.42" rerouteNo="0" devices="tripinfo_veh53" vType="passenger" speedFactor="1.00" vaporized=""/>
    <tripinfo id="veh176" depart="115.00" departLane="143207979#2_1" departPos="36.18" departSpeed="0.00" departDelay="0.60" arrival="187.00" arrivalLane="43546064#3_1" arrivalPos="334.85" arrivalSpeed="13.67" duration="72.00" routeLength="715.81" waitingTime="0.00" waitingCount="0" stopTime="0.00" timeLoss="17.07" rerouteNo="0" devices="tripinfo_veh176" vType="delivery" speedFactor="1.03" vaporized=""/>
    <tripinfo id="veh10" depart="7.00" departLane="-48778478#0_1" departPos="0.14" departSpeed="0.00" departDelay="0.50" arrival="193.00" arrivalLane="-222605084#2_1" arrivalPos="1.50" arrivalSpeed="5.05" duration="186.00" routeLength="1787.33" waitingTime="0.00" waitingCount="0" stopTime="0.00" timeLoss="32.87" rerouteNo="0" devices="tripinfo_veh10" vType="passenger" speedFactor="1.04" vaporized=""/>
    <tripinfo id="veh23" depart="15.00" departLane="-671642290_1" departPos="62.75" departSpeed="0.00" departDelay="0.05" arrival="193.00" arrivalLane="-1205541344_0" arrivalPos="82.96" arrivalSpeed="4.03" duration="178.00" routeLength="1787.81" waitingTime="0.00" waitingCount="0" stopTime="0.00" timeLoss="19.92" rerouteNo="0" devices="tripinfo_veh23" vType="passenger" speedFactor="0.89" vaporized=""/>
    <tripinfo id="veh61" depart="40.00" departLane="-945794109_1" departPos="7.57" departSpeed="0.00" departDelay="0.35" arrival="194.00" arrivalLane="-43544138#8_1" arrivalPos="5.97" arrivalSpeed="7.97" duration="154.00" routeLength="1514.64" waitingTime="20.00" waitingCount="2" stopTime="0.00" timeLoss="44.20" rerouteNo="0" devices="tripinfo_veh61" vType="passenger" speedFactor="1.02" vaporized=""/>
    <tripinfo id="veh88" depart="58.00" departLane="48797767#2_1" departPos="7.83" departSpeed="0.00" departDelay="0.80" arrival="196.00" arrivalLane="-48736632#0_1" arrivalPos="98.98" arrivalSpeed="13.52" duration="138.00" routeLength="1428.51" waitingTime="4.00" waitingCount="1" stopTime="0.00" timeLoss="29.16" rerouteNo="0" devices="tripinfo_veh88" vType="passenger" speedFactor="0.98" vaporized=""/>
    <tripinfo id="veh177" depart="116.00" departLane="353939585#0_1" departPos="12.93" departSpeed="0.00" departDelay="0.95" arrival="197.00" arrivalLane="-1250915720#5_1" arrivalPos="1.24" arrivalSpeed="5.08" duration="81.00" routeLength="846.66" waitingTime="0.00" waitingCount="0" stopTime="0.00" timeLoss="11.27" rerouteNo="0" devices="tripinfo_veh177" vType="passenger" speedFactor="1.04" vaporized=""/>
    <tripinfo id="veh166" depart="108.00" departLane="-48778525#2_1" departPos="73.69" departSpeed="0.00" departDelay="0.10" arrival="198.00" arrivalLane="648082196_1" arrivalPos="93.22" arrivalSpeed="13.65" duration="90.00" routeLength="989.36" waitingTime="0.00" waitingCount="0" stopTime="0.00" timeLoss="17.49" rerouteNo="0" devices="tripinfo_veh166" vType="passenger" speedFactor="1.04" vaporized=""/>
    <tripinfo id="veh154" depart="101.00" departLane="250295379_1" departPos="55.62" departSpeed="0.00" departDelay="0.90" arrival="199.00" arrivalLane="273836978#1_1" arrivalPos="68.56" arrivalSpeed="11.47" duration="98.00" routeLength="993.85" waitingTime="0.00" waitingCount="0" stopTime="0.00" timeLoss="16.15" rerouteNo="0" devices="tripinfo_veh154" vType="passenger" speedFactor="0.91" vaporized=""/>
    <personinfo id="ped2" depart="10.00" type="DEFAULT_PEDTYPE" speedFactor="1.14" duration="192.00" waitingTime="0.00" timeLoss="19.76" traveltime="192.00">
        <walk depart="10.00" departPos="0.00" arrival="202.00" arrivalPos="39.87" duration="192.00" routeLength="272.73" timeLoss="19.76" maxSpeed="1.58"/>
    </personinfo>
    <tripinfo id="veh12" depart="8.00" departLane="-48797767#1_1" departPos="44.95" departSpeed="0.00" departDelay="0.20" arrival="205.00" arrivalLane="48736618_1" arrivalPos="45.61" arrivalSpeed="12.76" duration="197.00" routeLength="1511.19" waitingTime="36.00" waitingCount="3" stopTime="0.00" timeLoss="82.18" rerouteNo="0" devices="tripinfo_veh12" vType="emergency" speedFactor="1.00" vaporized=""/>
    <tripinfo id="veh113" depart="74.00" departLane="383582500_0" departPos="170.13" departSpeed="0.00" departDelay="0.55" arrival="205.00" arrivalLane="43546064#3_1" arrivalPos="334.85" arrivalSpeed="13.78" duration="131.00" routeLength="1563.96" waitingTime="2.00" waitingCount="1" stopTime="0.00" timeLoss="17.86" rerouteNo="0" devices="tripinfo_veh113" vType="passenger" speedFactor="1.04" vaporized=""/>
    <tripinfo id="veh117" depart="77.00" departLane="43545645#1_1" departPos="91.05" departSpeed="0.00" departDelay="0.95" arrival="205.00" arrivalLane="-222609002#2_1" arrivalPos="15.40" arrivalSpeed="13.42" duration="128.00" routeLength="1469.54" waitingTime="0.00" waitingCount="0" stopTime="0.00" timeLoss="20.25" rerouteNo="0" devices="tripinfo_veh117" vType="passenger" speedFactor="1.02" vaporized=""/>
    <tripinfo id="veh150" depart="98.00" departLane="176279225#4_2" departPos="53.40" departSpeed="0.00" departDelay="0.50" arrival="208.00" arrivalLane="40299241#2_1" arrivalPos="144.50" arrivalSpeed="13.34" duration="110.00" routeLength="1115.20" waitingTime="0.00" waitingCount="0" stopTime="0.00" timeLoss="21.45" rerouteNo="0" devices="tripinfo_veh150" vType="motorcycle" speedFactor="0.97" vaporized=""/>
    <tripinfo id="veh52" depart="34.00" departLane="48778474#0_1" departPos="1.66" departSpeed="0.00" departDelay="0.20" arrival="212.00" arrivalLane="-383582499#4_1" arrivalPos="251.82" arrivalSpeed="14.08" duration="178.00" routeLength="1972.55" waitingTime="15.00" waitingCount="1" stopTime="0.00" timeLoss="37.49" rerouteNo="0" devices="tripinfo_veh52" vType="passenger" speedFactor="1.02" vaporized=""/>
    <tripinfo id="veh79" depart="52.00" departLane="48778505#2_1" departPos="49.24" departSpeed="0.00" departDelay="0.65" arrival="218.00" arrivalLane="48778478#2_1" arrivalPos="30.02" arrivalSpeed="12.18" duration="166.00" routeLength="1328.63" waitingTime="20.00" waitingCount="2" stopTime="0.00" timeLoss="54.90" rerouteNo="0" devices="tripinfo_veh79" vType="passenger" speedFactor="0.91" vaporized=""/>
    <tripinfo id="veh170" depart="111.00" departLane="1136284448_1" departPos="15.17" departSpeed="0.00" departDelay="0.50" arrival="220.00" arrivalLane="43544179#7_1" arrivalPos="45.61" arrivalSpeed="13.59" duration="109.00" routeLength="932.36" waitingTime="14.00" waitingCount="3" stopTime="0.00" timeLoss="38.34" rerouteNo="0" devices="tripinfo_veh170" vType="emergency" speedFactor="1.00" vaporized=""/>
    <personinfo id="ped32" depart="160.00" type="DEFAULT_PEDTYPE" speedFactor="1.26" duration="66.00" waitingTime="0.00" timeLoss="6.98" traveltime="66.00">
        <walk depart="160.00" departPos="0.00" arrival="226.00" arrivalPos="25.67" duration="66.00" routeLength="103.22" timeLoss="6.98" maxSpeed="1.75"/>
    </personinfo>
    <tripinfo id="veh81" depart="53.00" departLane="222605087#0_1" departPos="13.67" departSpeed="0.00" departDelay="0.35" arrival="226.00" arrivalLane="48736656#2_1" arrivalPos="51.77" arrivalSpeed="15.04" duration="173.00" routeLength="1725.30" waitingTime="0.00" waitingCount="0" stopTime="0.00" timeLoss="27.46" rerouteNo="0" devices="tripinfo_veh81" vType="passenger" speedFactor="1.10" vaporized=""/>
    <tripinfo id="veh140" depart="91.00" departLane="40314583#1_1" departPos="35.85" departSpeed="0.00" departDelay="0.00" arrival="226.00" arrivalLane="40299241#3_1" arrivalPos="62.98" arrivalSpeed="13.27" duration="135.00" routeLength="1431.27" waitingTime="0.00" waitingCount="0" stopTime="0.00" timeLoss="26.45" rerouteNo="0" devices="tripinfo_veh140" vType="passenger" speedFactor="0.98" vaporized=""/>
    <tripinfo id="veh89" depart="58.00" departLane="222605084#6_0" departPos="0.04" departSpeed="0.00" departDelay="0.15" arrival="230.00" arrivalLane="40305706#1_1" arrivalPos="57.88" arrivalSpeed="13.77" duration="172.00" routeLength="1352.80" waitingTime="15.00" waitingCount="1" stopTime="0.00" timeLoss="47.61" rerouteNo="0" devices="tripinfo_veh89" vType="delivery" speedFactor="1.03" vaporized=""/>
    <tripinfo id="veh217" depart="142.00" departLane="-1250915720#6_1" departPos="31.92" departSpeed="0.00" departDelay="0.95" arrival="233.00" arrivalLane="-1136119743#0_1" arrivalPos="24.46" arrivalSpeed="8.87" duration="91.00" routeLength="623.37" waitingTime="0.00" waitingCount="0" stopTime="0.00" timeLoss="16.51" rerouteNo="0" devices="tripinfo_veh217" vType="passenger" speedFactor="1.13" vaporized=""/>
    <tripinfo id="veh70" depart="46.00" departLane="671642313_1" departPos="15.65" departSpeed="0.00" departDelay="0.50" arrival="234.00" arrivalLane="-859726677#0_1" arrivalPos="35.20" arrivalSpeed="4.72" duration="188.00" routeLength="2441.30" waitingTime="0.00" waitingCount="0" stopTime="0.00" timeLoss="17.04" rerouteNo="0" devices="tripinfo_veh70" vType="passenger" speedFactor="1.08" vaporized=""/>
    <tripinfo id="veh93" depart="61.00" departLane="-48778512_1" departPos="51.57" departSpeed="0.00" departDelay="0.55" arrival="234.00" arrivalLane="984508805_0" arrivalPos="34.81" arrivalSpeed="4.87" duration="173.00" routeLength="1697.06" waitingTime="8.00" waitingCount="2" stopTime="0.00" timeLoss="51.85" rerouteNo="0" devices="tripinfo_veh93" vType="passenger" speedFactor="1.10" vaporized=""/>
    <tripinfo id="veh130" depart="85.00" departLane="-48736612#2_1" departPos="38.56" departSpeed="0.00" departDelay="0.50" arrival="238.00" arrivalLane="E26_2" arrivalPos="166.60" arrivalSpeed="12.97" duration="153.00" routeLength="927.99" waitingTime="55.00" waitingCount="3" stopTime="0.00" timeLoss="85.14" rerouteNo="0" devices="tripinfo_veh130" vType="motorcycle" speedFactor="1.01" vaporized=""/>
    <tripinfo id="veh111" depart="73.00" departLane="-48778496_1" departPos="57.95" departSpeed="0.00" departDelay="0.85" arrival="244.00" arrivalLane="-48736612#7_1" arrivalPos="29.01" arrivalSpeed="12.22" duration="171.00" routeLength="1969.54" waitingTime="0.00" waitingCount="0" stopTime="0.00" timeLoss="20.08" rerouteNo="0" devices="tripinfo_veh111" vType="passenger" speedFactor="1.03" vaporized=""/>
    <personinfo id="ped18" depart="90.00" type="DEFAULT_PEDTYPE" speedFactor="1.10" duration="155.00" waitingTime="0.00" timeLoss="15.90" traveltime="155.00">
        <walk depart="90.00" departPos="0.00" arrival="245.00" arrivalPos="12.21" duration="155.00" routeLength="212.96" timeLoss="15.90" maxSpeed="1.53"/>
    </personinfo>
    <tripinfo id="veh160" depart="104.00" departLane="43546789#3_1" departPos="39.25" departSpeed="0.00" departDelay="0.00" arrival="251.00" arrivalLane="43544001#2_1" arrivalPos="52.63" arrivalSpeed="12.24" duration="147.00" routeLength="1578.66" waitingTime="0.00" waitingCount="0" stopTime="0.00" timeLoss="17.44" rerouteNo="0" devices="tripinfo_veh160" vType="passenger" speedFactor="0.90" vaporized=""/>
    <tripinfo id="veh141" depart="92.00" departLane="40266621_1" departPos="9.36" departSpeed="0.00" departDelay="0.35" arrival="252.00" arrivalLane="-48736642_1" arrivalPos="106.82" arrivalSpeed="11.95" duration="160.00" routeLength="805.44" waitingTime="67.00" waitingCount="1" stopTime="0.00" timeLoss="87.49" rerouteNo="0" devices="tripinfo_veh141" vType="passenger" speedFactor="0.87" vaporized=""/>
    <tripinfo id="veh25" depart="17.00" departLane="1137794254_1" departPos="4.90" departSpeed="0.00" departDelay="0.75" arrival="254.00" arrivalLane="-353939574_0" arrivalPos="189.91" arrivalSpeed="5.24" duration="237.00" routeLength="2604.60" waitingTime="26.00" waitingCount="1" stopTime="0.00" timeLoss="49.45" rerouteNo="0" devices="tripinfo_veh25" vType="passenger" speedFactor="1.12" vaporized=""/>
    <tripinfo id="veh67" depart="44.00" departLane="40236228#0_1" departPos="67.01" departSpeed="0.00" departDelay="0.45" arrival="254.00" arrivalLane="43546460#2_1" arrivalPos="42.79" arrivalSpeed="13.85" duration="210.00" routeLength="2447.22" waitingTime="1.00" waitingCount="1" stopTime="0.00" timeLoss="40.33" rerouteNo="0" devices="tripinfo_veh67" vType="passenger" speedFactor="1.09" vaporized=""/>
    <tripinfo id="veh137" depart="90.00" departLane="-48778508#5_1" departPos="28.23" departSpeed="0.00" departDelay="0.95" arrival="254.00" arrivalLane="859735386#0_0" arrivalPos="77.39" arrivalSpeed="3.77" duration="164.00" routeLength="1517.29" waitingTime="0.00" waitingCount="0" stopTime="0.00" timeLoss="26.17" rerouteNo="0" devices="tripinfo_veh137" vType="motorcycle" speedFactor="0.91" vaporized=""/>
    <tripinfo id="veh75" depart="49.00" departLane="383582854#2_0" departPos="35.68" departSpeed="0.00" departDelay="0.25" arrival="256.00" arrivalLane="48736605_1" arrivalPos="236.72" arrivalSpeed="10.74" duration="207.00" routeLength="1664.09" waitingTime="37.00" waitingCount="1" stopTime="0.00" timeLoss="57.88" rerouteNo="0" devices="tripinfo_veh75" vType="passenger" speedFactor="0.83" vaporized=""/>
    <tripinfo id="veh127" depart="83.00" departLane="-40304754#5_1" departPos="64.82" departSpeed="0.00" departDelay="0.45" arrival="256.00" arrivalLane="-40314853#3_1" arrivalPos="25.30" arrivalSpeed="13.08" duration="173.00" routeLength="1741.22" waitingTime="21.00" waitingCount="1" stopTime="0.00" timeLoss="52.32" rerouteNo="0" devices="tripinfo_veh127" vType="passenger" speedFactor="1.07" vaporized=""/>
    <tripinfo id="veh145" depart="95.00" departLane="1136284448_1" departPos="22.04" departSpeed="0.00" departDelay="0.75" arrival="258.00" arrivalLane="1250915724#0_1" arrivalPos="12.38" arrivalSpeed="4.55" duration="163.00" routeLength="1109.17" waitingTime="22.00" waitingCount="2" stopTime="0.00" timeLoss="56.41" rerouteNo="0" devices="tripinfo_veh145" vType="passenger" speedFactor="0.96" vaporized=""/>
    <tripinfo id="veh90" depart="62.00" departLane="-33909936#3_1" departPos="11.96" departSpeed="0.00" departDelay="3.50" arrival="259.00" arrivalLane="143207982#4_1" arrivalPos="17.42" arrivalSpeed="16.88" duration="197.00" routeLength="2666.87" waitingTime="3.00" waitingCount="1" stopTime="0.00" timeLoss="41.57" rerouteNo="0" devices="tripinfo_veh90" vType="passenger" speedFactor="1.25" vaporized=""/>
    <tripinfo id="veh143" depart="93.00" departLane="-984513295_0" departPos="31.44" departSpeed="0.00" departDelay="0.05" arrival="259.00" arrivalLane="492965073#8_1" arrivalPos="91.29" arrivalSpeed="14.09" duration="166.00" routeLength="1455.17" waitingTime="33.00" waitingCount="2" stopTime="0.00" timeLoss="64.24" rerouteNo="0" devices="tripinfo_veh143" vType="passenger" speedFactor="1.06" vaporized=""/>
    <tripinfo id="veh86" depart="56.00" departLane="-48736655_1" departPos="11.66" departSpeed="0.00" departDelay="0.10" arrival="261.00" arrivalLane="671642329#1_1" arrivalPos="189.87" arrivalSpeed="14.50" duration="205.00" routeLength="1830.15" waitingTime="35.00" waitingCount="1" stopTime="0.00" timeLoss="78.50" rerouteNo="0" devices="tripinfo_veh86" vType="passenger" speedFactor="1.08" vaporized=""/>
    <tripinfo id="veh226" depart="147.00" departLane="-40314583#6_1" departPos="36.99" departSpeed="0.00" departDelay="0.10" arrival="262.00" arrivalLane="40314583#6_1" arrivalPos="41.79" arrivalSpeed="11.97" duration="115.00" routeLength="1256.80" waitingTime="0.00" waitingCount="0" stopTime="0.00" timeLoss="15.13" rerouteNo="0" devices="tripinfo_veh226" vType="delivery" speedFactor="0.93" vaporized=""/>