<?xml version="1.0" encoding="UTF-8"?>

<!-- generated on 2025-06-12 12:06:44 by Eclipse SUMO sumo Version 1.22.0
<sumoConfiguration xmlns:xsi="http://www.w3.org/2001/XMLSchema-instance" xsi:noNamespaceSchemaLocation="http://sumo.dlr.de/xsd/sumoConfiguration.xsd">

    <input>
        <net-file value="E:/licenta/oras-mediu/2025-06-05-11-45-23/osm.net.xml"/>
        <route-files value="E:/licenta/oras-mediu/2025-06-05-11-45-23/full.rou.xml,E:/licenta/oras-mediu/2025-06-05-11-45-23/ ped.rou.xml,E:/licenta/oras-mediu/2025-06-05-11-45-23/ truck.rou.xml"/>
        <additional-files value="E:/licenta/oras-mediu/2025-06-05-11-45-23/osm.poly.xml,E:/licenta/oras-mediu/2025-06-05-11-45-23/ vtypes.xml"/>
    </input>

    <output>
        <summary-output value="E:/licenta/oras-mediu/2025-06-05-11-45-23/summary.xml"/>
        <tripinfo-output value="E:/licenta/oras-mediu/2025-06-05-11-45-23/tripinfo.xml"/>
    </output>

    <processing>
        <ignore-route-errors value="true"/>
        <tls.actuated.jam-threshold value="30"/>
    </processing>

    <routing>
        <device.rerouting.adaptation-steps value="18"/>
        <device.rerouting.adaptation-interval value="10"/>
    </routing>

    <report>
        <verbose value="true"/>
        <duration-log.statistics value="true"/>
        <no-step-log value="true"/>
    </report>

    <traci_server>
        <remote-port value="63846"/>
    </traci_server>

    <gui_only>
        <gui-settings-file value="E:/licenta/oras-mediu/2025-06-05-11-45-23/osm.view.xml"/>
    </gui_only>

</sumoConfiguration>
-->

<tripinfos xmlns:xsi="http://www.w3.org/2001/XMLSchema-instance" xsi:noNamespaceSchemaLocation="http://sumo.dlr.de/xsd/tripinfo_file.xsd">
    <tripinfo id="veh16" depart="9.00" departLane="48736622#0_1" departPos="0.18" departSpeed="0.00" departDelay="0.52" arrival="27.00" arrivalLane="-48736612#3_1" arrivalPos="54.88" arrivalSpeed="11.51" duration="18.00" routeLength="179.27" waitingTime="0.00" waitingCount="0" stopTime="0.00" timeLoss="3.29" rerouteNo="0" devices="tripinfo_veh16" vType="passenger" speedFactor="0.89" vaporized=""/>
    <tripinfo id="veh29" depart="16.00" departLane="-143207979#6_1" departPos="213.35" departSpeed="0.00" departDelay="0.63" arrival="67.00" arrivalLane="-43544179#3_1" arrivalPos="126.73" arrivalSpeed="14.15" duration="51.00" routeLength="648.40" waitingTime="0.00" waitingCount="0" stopTime="0.00" timeLoss="7.29" rerouteNo="0" devices="tripinfo_veh29" vType="passenger" speedFactor="1.10" vaporized=""/>
    <tripinfo id="veh54" depart="29.00" departLane="48797774_1" departPos="48.07" departSpeed="0.00" departDelay="0.38" arrival="75.00" arrivalLane="354259928_1" arrivalPos="68.18" arrivalSpeed="11.77" duration="46.00" routeLength="436.80" waitingTime="0.00" waitingCount="0" stopTime="0.00" timeLoss="9.49" rerouteNo="0" devices="tripinfo_veh54" vType="passenger" speedFactor="0.91" vaporized=""/>
    <tripinfo id="veh111" depart="59.00" departLane="40345956#0_1" departPos="91.11" departSpeed="0.00" departDelay="0.17" arrival="77.00" arrivalLane="992542691_0" arrivalPos="24.23" arrivalSpeed="4.87" duration="18.00" routeLength="131.89" waitingTime="0.00" waitingCount="0" stopTime="0.00" timeLoss="4.71" rerouteNo="0" devices="tripinfo_veh111" vType="passenger" speedFactor="1.01" vaporized=""/>
    <tripinfo id="veh146" depart="78.00" departLane="40236220#0_1" departPos="16.01" departSpeed="0.00" departDelay="0.62" arrival="88.00" arrivalLane="40266620_1" arrivalPos="32.51" arrivalSpeed="11.54" duration="10.00" routeLength="110.50" waitingTime="0.00" waitingCount="0" stopTime="0.00" timeLoss="1.75" rerouteNo="0" devices="tripinfo_veh146" vType="motorcycle" speedFactor="0.98" vaporized=""/>
    <tripinfo id="veh90" depart="48.00" departLane="48797768_1" departPos="84.73" departSpeed="0.00" departDelay="0.30" arrival="94.00" arrivalLane="-48778461#1_1" arrivalPos="23.84" arrivalSpeed="10.98" duration="46.00" routeLength="391.98" waitingTime="0.00" waitingCount="0" stopTime="0.00" timeLoss="9.87" rerouteNo="0" devices="tripinfo_veh90" vType="passenger" speedFactor="0.87" vaporized=""/>
    <tripinfo id="veh93" depart="50.00" departLane="-647383048_1" departPos="92.82" departSpeed="0.00" departDelay="0.71" arrival="97.00" arrivalLane="43573547#1_1" arrivalPos="25.37" arrivalSpeed="13.09" duration="47.00" routeLength="442.68" waitingTime="0.00" waitingCount="0" stopTime="0.00" timeLoss="10.76" rerouteNo="0" devices="tripinfo_veh93" vType="passenger" speedFactor="0.97" vaporized=""/>
    <tripinfo id="veh51" depart="28.00" departLane="48778500#0_1" departPos="15.44" departSpeed="0.00" departDelay="0.97" arrival="113.00" arrivalLane="33909936#1_1" arrivalPos="134.25" arrivalSpeed="12.82" duration="85.00" routeLength="829.16" waitingTime="0.00" waitingCount="0" stopTime="0.00" timeLoss="19.40" rerouteNo="0" devices="tripinfo_veh51" vType="delivery" speedFactor="0.99" vaporized=""/>
    <tripinfo id="veh149" depart="79.00" departLane="-48778461#1_1" departPos="20.43" departSpeed="0.00" departDelay="0.03" arrival="116.00" arrivalLane="48778464#2_1" arrivalPos="24.43" arrivalSpeed="11.96" duration="37.00" routeLength="259.61" waitingTime="0.00" waitingCount="0" stopTime="0.00" timeLoss="10.65" rerouteNo="0" devices="tripinfo_veh149" vType="passenger" speedFactor="1.03" vaporized=""/>
    <tripinfo id="veh83" depart="44.00" departLane="43544624#1_1" departPos="84.39" departSpeed="0.00" departDelay="0.01" arrival="117.00" arrivalLane="43544001#3_1" arrivalPos="41.26" arrivalSpeed="11.98" duration="73.00" routeLength="653.40" waitingTime="0.00" waitingCount="0" stopTime="0.00" timeLoss="14.92" rerouteNo="0" devices="tripinfo_veh83" vType="passenger" speedFactor="0.89" vaporized=""/>
    <tripinfo id="veh134" depart="72.00" departLane="250295380#0_1" departPos="60.57" departSpeed="0.00" departDelay="0.98" arrival="131.00" arrivalLane="470210923#1_1" arrivalPos="159.45" arrivalSpeed="14.39" duration="59.00" routeLength="682.88" waitingTime="0.00" waitingCount="0" stopTime="0.00" timeLoss="13.16" rerouteNo="0" devices="tripinfo_veh134" vType="passenger" speedFactor="1.13" vaporized=""/>
    <tripinfo id="veh127" depart="68.00" departLane="48797766#0_1" departPos="10.10" departSpeed="0.00" departDelay="0.69" arrival="134.00" arrivalLane="-176279225#2_1" arrivalPos="97.77" arrivalSpeed="15.62" duration="66.00" routeLength="804.08" waitingTime="0.00" waitingCount="0" stopTime="0.00" timeLoss="14.35" rerouteNo="0" devices="tripinfo_veh127" vType="passenger" speedFactor="1.18" vaporized=""/>
    <tripinfo id="veh57" depart="31.00" departLane="-222608881#1_1" departPos="32.74" departSpeed="0.00" departDelay="0.79" arrival="135.00" arrivalLane="-48778517#0_1" arrivalPos="43.62" arrivalSpeed="6.99" duration="104.00" routeLength="926.52" waitingTime="0.00" waitingCount="0" stopTime="0.00" timeLoss="24.05" rerouteNo="0" devices="tripinfo_veh57" vType="delivery" speedFactor="0.96" vaporized=""/>
    <tripinfo id="veh117" depart="63.00" departLane="43546039#0_1" departPos="113.04" departSpeed="0.00" departDelay="0.99" arrival="141.00" arrivalLane="-383582506_0" arrivalPos="44.83" arrivalSpeed="5.61" duration="78.00" routeLength="807.81" waitingTime="0.00" waitingCount="0" stopTime="0.00" timeLoss="13.57" rerouteNo="0" devices="tripinfo_veh117" vType="delivery" speedFactor="1.06" vaporized=""/>
    <tripinfo id="veh21" depart="12.00" departLane="-48778446#2_1" departPos="1.62" departSpeed="0.00" departDelay="0.87" arrival="146.00" arrivalLane="43546570#0_1" arrivalPos="43.31" arrivalSpeed="12.23" duration="134.00" routeLength="971.70" waitingTime="37.00" waitingCount="1" stopTime="0.00" timeLoss="53.48" rerouteNo="0" devices="tripinfo_veh21" vType="passenger" speedFactor="0.89" vaporized=""/>
    <tripinfo id="veh40" depart="22.00" departLane="-40304754#5_1" departPos="96.17" departSpeed="0.00" departDelay="0.80" arrival="157.00" arrivalLane="43544179#12_1" arrivalPos="77.06" arrivalSpeed="13.81" duration="135.00" routeLength="1746.52" waitingTime="0.00" waitingCount="0" stopTime="0.00" timeLoss="14.45" rerouteNo="0" devices="tripinfo_veh40" vType="passenger" speedFactor="1.05" vaporized=""/>
    <tripinfo id="veh152" depart="81.00" departLane="43546088_1" departPos="191.95" departSpeed="0.00" departDelay="0.44" arrival="158.00" arrivalLane="48778431#4_2" arrivalPos="151.14" arrivalSpeed="12.34" duration="77.00" routeLength="718.82" waitingTime="0.00" waitingCount="0" stopTime="0.00" timeLoss="17.47" rerouteNo="0" devices="tripinfo_veh152" vType="passenger" speedFactor="0.91" vaporized=""/>
    <tripinfo id="veh96" depart="51.00" departLane="-492965073#5_1" departPos="146.61" departSpeed="0.00" departDelay="0.12" arrival="160.00" arrivalLane="48778472_1" arrivalPos="49.54" arrivalSpeed="12.52" duration="109.00" routeLength="1210.91" waitingTime="0.00" waitingCount="0" stopTime="0.00" timeLoss="17.15" rerouteNo="0" devices="tripinfo_veh96" vType="passenger" speedFactor="0.99" vaporized=""/>
    <tripinfo id="veh169" depart="90.00" departLane="-43547017#4_1" departPos="8.76" departSpeed="0.00" departDelay="0.43" arrival="160.00" arrivalLane="-43546039#1_1" arrivalPos="97.78" arrivalSpeed="13.03" duration="70.00" routeLength="772.31" waitingTime="0.00" waitingCount="0" stopTime="0.00" timeLoss="11.59" rerouteNo="0" devices="tripinfo_veh169" vType="emergency" speedFactor="1.00" vaporized=""/>
    <tripinfo id="veh9" depart="5.00" departLane="174817602_0" departPos="91.91" departSpeed="0.00" departDelay="0.23" arrival="161.00" arrivalLane="48736618_1" arrivalPos="45.61" arrivalSpeed="11.88" duration="156.00" routeLength="1401.88" waitingTime="8.00" waitingCount="1" stopTime="0.00" timeLoss="32.78" rerouteNo="0" devices="tripinfo_veh9" vType="passenger" speedFactor="0.90" vaporized=""/>
    <tripinfo id="veh20" depart="11.00" departLane="48736650#2_1" departPos="0.48" departSpeed="0.00" departDelay="0.40" arrival="163.00" arrivalLane="-530103972_1" arrivalPos="61.24" arrivalSpeed="2.19" duration="152.00" routeLength="943.81" waitingTime="55.00" waitingCount="1" stopTime="0.00" timeLoss="74.98" rerouteNo="0" devices="tripinfo_veh20" vType="passenger" speedFactor="1.13" vaporized=""/>
    <tripinfo id="veh1" depart="1.00" departLane="40236220#2_1" departPos="17.69" departSpeed="0.00" departDelay="0.47" arrival="165.00" arrivalLane="43544001#2_1" arrivalPos="52.63" arrivalSpeed="12.79" duration="164.00" routeLength="1866.86" waitingTime="0.00" waitingCount="0" stopTime="0.00" timeLoss="22.52" rerouteNo="0" devices="tripinfo_veh1" vType="motorcycle" speedFactor="0.98" vaporized=""/>
    <tripinfo id="veh142" depart="76.00" departLane="-43544001#2_1" departPos="46.71" departSpeed="0.00" departDelay="0.74" arrival="165.00" arrivalLane="-43544179#6_1" arrivalPos="35.50" arrivalSpeed="13.76" duration="89.00" routeLength="915.00" waitingTime="4.00" waitingCount="1" stopTime="0.00" timeLoss="23.77" rerouteNo="0" devices="tripinfo_veh142" vType="passenger" speedFactor="1.06" vaporized=""/>
    <tripinfo id="veh42" depart="23.00" departLane="-1250915726_1" departPos="168.10" departSpeed="0.00" departDelay="0.74" arrival="166.00" arrivalLane="-353939570#2_1" arrivalPos="3.23" arrivalSpeed="5.73" duration="143.00" routeLength="805.57" waitingTime="0.00" waitingCount="0" stopTime="0.00" timeLoss="10.73" rerouteNo="0" devices="tripinfo_veh42" vType="bicycle" speedFactor="1.10" vaporized=""/>
    <tripinfo id="veh95" depart="51.00" departLane="-48736650#2_1" departPos="15.74" departSpeed="0.00" departDelay="0.65" arrival="167.00" arrivalLane="-40334244#0_1" arrivalPos="88.65" arrivalSpeed="15.42" duration="116.00" routeLength="1144.31" waitingTime="0.00" waitingCount="0" stopTime="0.00" timeLoss="23.43" rerouteNo="0" devices="tripinfo_veh95" vType="passenger" speedFactor="1.13" vaporized=""/>
    <tripinfo id="veh2" depart="2.00" departLane="-1136289990_1" departPos="7.08" departSpeed="0.00" departDelay="0.94" arrival="169.00" arrivalLane="43546688#0_1" arrivalPos="19.83" arrivalSpeed="9.15" duration="167.00" routeLength="1737.54" waitingTime="0.00" waitingCount="0" stopTime="0.00" timeLoss="19.15" rerouteNo="0" devices="tripinfo_veh2" vType="passenger" speedFactor="0.89" vaporized=""/>
    <tripinfo id="veh155" depart="83.00" departLane="-43546789#1_1" departPos="18.02" departSpeed="0.00" departDelay="0.85" arrival="169.00" arrivalLane="48778473#1_1" arrivalPos="30.96" arrivalSpeed="12.23" duration="86.00" routeLength="805.44" waitingTime="0.00" waitingCount="0" stopTime="0.00" timeLoss="22.33" rerouteNo="0" devices="tripinfo_veh155" vType="delivery" speedFactor="0.99" vaporized=""/>
    <tripinfo id="veh129" depart="69.00" departLane="-1136117604_1" departPos="18.70" departSpeed="0.00" departDelay="0.63" arrival="170.00" arrivalLane="-1250915720#0_1" arrivalPos="2.68" arrivalSpeed="3.18" duration="101.00" routeLength="863.44" waitingTime="0.00" waitingCount="0" stopTime="0.00" timeLoss="18.01" rerouteNo="0" devices="tripinfo_veh129" vType="motorcycle" speedFactor="1.01" vaporized=""/>
    <tripinfo id="veh153" depart="82.00" departLane="48797765#1_1" departPos="8.23" departSpeed="0.00" departDelay="0.91" arrival="170.00" arrivalLane="-304695350#2_1" arrivalPos="9.95" arrivalSpeed="6.91" duration="88.00" routeLength="747.97" waitingTime="0.00" waitingCount="0" stopTime="0.00" timeLoss="14.59" rerouteNo="0" devices="tripinfo_veh153" vType="passenger" speedFactor="0.89" vaporized=""/>
    <tripinfo id="veh76" depart="44.00" departLane="-222609002#4_1" departPos="26.48" departSpeed="0.00" departDelay="3.72" arrival="175.00" arrivalLane="40266909#0_1" arrivalPos="56.72" arrivalSpeed="11.20" duration="131.00" routeLength="1269.96" waitingTime="3.00" waitingCount="1" stopTime="0.00" timeLoss="21.54" rerouteNo="0" devices="tripinfo_veh76" vType="passenger" speedFactor="0.86" vaporized=""/>
    <tripinfo id="veh122" depart="65.00" departLane="43544184#2_1" departPos="38.38" departSpeed="0.00" departDelay="0.34" arrival="180.00" arrivalLane="671642291_1" arrivalPos="61.56" arrivalSpeed="14.32" duration="115.00" routeLength="1354.53" waitingTime="0.00" waitingCount="0" stopTime="0.00" timeLoss="17.93" rerouteNo="0" devices="tripinfo_veh122" vType="motorcycle" speedFactor="1.04" vaporized=""/>
    <tripinfo id="veh156" depart="83.00" departLane="48778487#1_2" departPos="260.56" departSpeed="0.00" departDelay="0.32" arrival="181.00" arrivalLane="-945793490#2_1" arrivalPos="11.86" arrivalSpeed="4.77" duration="98.00" routeLength="895.50" waitingTime="0.00" waitingCount="0" stopTime="0.00" timeLoss="20.13" rerouteNo="0" devices="tripinfo_veh156" vType="passenger" speedFactor="1.07" vaporized=""/>
    <tripinfo id="veh44" depart="24.00" departLane="258551281_1" departPos="6.87" departSpeed="0.00" departDelay="0.68" arrival="182.00" arrivalLane="258551317_1" arrivalPos="85.97" arrivalSpeed="12.11" duration="158.00" routeLength="1250.65" waitingTime="33.00" waitingCount="1" stopTime="0.00" timeLoss="54.92" rerouteNo="0" devices="tripinfo_veh44" vType="motorcycle" speedFactor="0.90" vaporized=""/>
    <tripinfo id="veh228" depart="121.00" departLane="222608881#0_1" departPos="80.08" departSpeed="0.00" departDelay="0.16" arrival="184.00" arrivalLane="48778522_1" arrivalPos="21.75" arrivalSpeed="7.71" duration="63.00" routeLength="590.98" waitingTime="0.00" waitingCount="0" stopTime="0.00" timeLoss="15.84" rerouteNo="0" devices="tripinfo_veh228" vType="delivery" speedFactor="1.01" vaporized=""/>
    <tripinfo id="veh279" depart="148.00" departLane="1135855898_0" departPos="13.95" departSpeed="0.00" departDelay="0.13" arrival="186.00" arrivalLane="48797765#2_1" arrivalPos="21.05" arrivalSpeed="11.90" duration="38.00" routeLength="246.73" waitingTime="0.00" waitingCount="0" stopTime="0.00" timeLoss="11.15" rerouteNo="0" devices="tripinfo_veh279" vType="motorcycle" speedFactor="0.91" vaporized=""/>
    <tripinfo id="veh5" depart="3.00" departLane="-48736650#1_1" departPos="3.81" departSpeed="0.00" departDelay="0.35" arrival="188.00" arrivalLane="-492965073#6_2" arrivalPos="1.92" arrivalSpeed="6.80" duration="185.00" routeLength="1553.76" waitingTime="5.00" waitingCount="2" stopTime="0.00" timeLoss="44.15" rerouteNo="0" devices="tripinfo_veh5" vType="passenger" speedFactor="0.92" vaporized=""/>
    <tripinfo id="veh109" depart="58.00" departLane="945793485#0_1" departPos="24.00" departSpeed="0.00" departDelay="0.23" arrival="188.00" arrivalLane="-48736620#5_1" arrivalPos="11.94" arrivalSpeed="13.50" duration="130.00" routeLength="1354.36" waitingTime="0.00" waitingCount="0" stopTime="0.00" timeLoss="24.89" rerouteNo="0" devices="tripinfo_veh109" vType="passenger" speedFactor="1.04" vaporized=""/>
    <tripinfo id="veh113" depart="60.00" departLane="-383582516_0" departPos="193.53" departSpeed="0.00" departDelay="0.11" arrival="189.00" arrivalLane="353939570#5_2" arrivalPos="72.46" arrivalSpeed="14.05" duration="129.00" routeLength="1391.43" waitingTime="0.00" waitingCount="0" stopTime="0.00" timeLoss="20.93" rerouteNo="0" devices="tripinfo_veh113" vType="passenger" speedFactor="1.02" vaporized=""/>
    <tripinfo id="veh120" depart="64.00" departLane="-1136301818_1" departPos="10.80" departSpeed="0.00" departDelay="0.40" arrival="190.00" arrivalLane="1136283381_1" arrivalPos="22.82" arrivalSpeed="7.29" duration="126.00" routeLength="988.10" waitingTime="13.00" waitingCount="1" stopTime="0.00" timeLoss="42.40" rerouteNo="0" devices="tripinfo_veh120" vType="passenger" speedFactor="0.97" vaporized=""/>
    <tripinfo id="veh148" depart="79.00" departLane="-222605087#0_1" departPos="13.99" departSpeed="0.00" departDelay="0.56" arrival="191.00" arrivalLane="43573573#0_1" arrivalPos="20.39" arrivalSpeed="12.66" duration="112.00" routeLength="1156.59" waitingTime="1.00" waitingCount="1" stopTime="0.00" timeLoss="21.86" rerouteNo="0" devices="tripinfo_veh148" vType="motorcycle" speedFactor="0.97" vaporized=""/>
    <tripinfo id="veh154" depart="82.00" departLane="43546789#3_1" departPos="30.35" departSpeed="0.00" departDelay="0.38" arrival="191.00" arrivalLane="-1205541342_1" arrivalPos="22.37" arrivalSpeed="5.65" duration="109.00" routeLength="1374.16" waitingTime="0.00" waitingCount="0" stopTime="0.00" timeLoss="16.33" rerouteNo="0" devices="tripinfo_veh154" vType="passenger" speedFactor="1.18" vaporized=""/>
    <tripinfo id="veh65" depart="35.00" departLane="33913538#8_1" departPos="1.99" departSpeed="0.00" departDelay="0.55" arrival="192.00" arrivalLane="-273835688_1" arrivalPos="177.49" arrivalSpeed="13.61" duration="157.00" routeLength="1125.91" waitingTime="49.00" waitingCount="2" stopTime="0.00" timeLoss="75.49" rerouteNo="0" devices="tripinfo_veh65" vType="passenger" speedFactor="1.02" vaporized=""/>
    <tripinfo id="veh250" depart="133.00" departLane="-43544001#11_1" departPos="11.93" departSpeed="0.00" departDelay="0.50" arrival="194.00" arrivalLane="-43546053#1_1" arrivalPos="96.08" arrivalSpeed="13.74" duration="61.00" routeLength="766.09" waitingTime="0.00" waitingCount="0" stopTime="0.00" timeLoss="7.89" rerouteNo="0" devices="tripinfo_veh250" vType="passenger" speedFactor="1.06" vaporized=""/>
    <tripinfo id="veh160" depart="85.00" departLane="43544197#4_1" departPos="37.04" departSpeed="0.00" departDelay="0.20" arrival="197.00" arrivalLane="-222609002#3_1" arrivalPos="89.31" arrivalSpeed="15.19" duration="112.00" routeLength="1409.92" waitingTime="0.00" waitingCount="0" stopTime="0.00" timeLoss="20.21" rerouteNo="0" devices="tripinfo_veh160" vType="passenger" speedFactor="1.15" vaporized=""/>
    <tripinfo id="veh116" depart="62.00" departLane="-40299283_1" departPos="10.79" departSpeed="0.00" departDelay="0.52" arrival="199.00" arrivalLane="-48736612#1_1" arrivalPos="56.12" arrivalSpeed="13.14" duration="137.00" routeLength="1448.05" waitingTime="3.00" waitingCount="1" stopTime="0.00" timeLoss="29.33" rerouteNo="0" devices="tripinfo_veh116" vType="delivery" speedFactor="1.01" vaporized=""/>
    <tripinfo id="veh254" depart="138.00" departLane="43546343#2_1" departPos="37.56" departSpeed="0.00" departDelay="3.38" arrival="199.00" arrivalLane="48778474#0_1" arrivalPos="3.74" arrivalSpeed="9.36" duration="61.00" routeLength="317.59" waitingTime="1.00" waitingCount="1" stopTime="0.00" timeLoss="21.36" rerouteNo="0" devices="tripinfo_veh254" vType="motorcycle" speedFactor="0.99" vaporized=""/>
    <tripinfo id="veh4" depart="3.00" departLane="-945793491#0_1" departPos="25.73" departSpeed="0.00" departDelay="0.88" arrival="200.00" arrivalLane="43544046_1" arrivalPos="104.15" arrivalSpeed="14.64" duration="197.00" routeLength="2412.63" waitingTime="0.00" waitingCount="0" stopTime="0.00" timeLoss="20.61" rerouteNo="0" devices="tripinfo_veh4" vType="passenger" speedFactor="1.09" vaporized=""/>
    <tripinfo id="veh219" depart="117.00" departLane="40265780#0_1" departPos="115.74" departSpeed="0.00" departDelay="0.93" arrival="201.00" arrivalLane="984505045_0" arrivalPos="60.60" arrivalSpeed="4.61" duration="84.00" routeLength="738.78" waitingTime="0.00" waitingCount="0" stopTime="0.00" timeLoss="15.07" rerouteNo="0" devices="tripinfo_veh219" vType="motorcycle" speedFactor="0.93" vaporized=""/>
    <tripinfo id="veh114" depart="61.00" departLane="354252035_1" departPos="47.97" departSpeed="0.00" departDelay="0.58" arrival="203.00" arrivalLane="-48778514#1_1" arrivalPos="255.62" arrivalSpeed="14.44" duration="142.00" routeLength="1656.99" waitingTime="0.00" waitingCount="0" stopTime="0.00" timeLoss="25.01" rerouteNo="0" devices="tripinfo_veh114" vType="passenger" speedFactor="1.06" vaporized=""/>
    <tripinfo id="veh212" depart="113.00" departLane="48778475#0_1" departPos="15.01" departSpeed="0.00" departDelay="0.64" arrival="204.00" arrivalLane="43546789#2_1" arrivalPos="71.56" arrivalSpeed="15.36" duration="91.00" routeLength="766.76" waitingTime="15.00" waitingCount="1" stopTime="0.00" timeLoss="39.41" rerouteNo="0" devices="tripinfo_veh212" vType="passenger" speedFactor="1.13" vaporized=""/>
    <tripinfo id="veh63" depart="34.00" departLane="1136117604_1" departPos="19.59" departSpeed="0.00" departDelay="0.61" arrival="205.00" arrivalLane="43546935#2_1" arrivalPos="44.28" arrivalSpeed="14.29" duration="171.00" routeLength="2027.02" waitingTime="0.00" waitingCount="0" stopTime="0.00" timeLoss="32.36" rerouteNo="0" devices="tripinfo_veh63" vType="passenger" speedFactor="1.09" vaporized=""/>
    <tripinfo id="veh211" depart="112.00" departLane="-48778461#1_1" departPos="3.35" departSpeed="0.00" departDelay="0.17" arrival="206.00" arrivalLane="492965073#7_2" arrivalPos="34.78" arrivalSpeed="14.95" duration="94.00" routeLength="502.71" waitingTime="37.00" waitingCount="2" stopTime="0.00" timeLoss="58.60" rerouteNo="0" devices="tripinfo_veh211" vType="passenger" speedFactor="1.12" vaporized=""/>
    <tripinfo id="veh14" depart="8.00" departLane="43546935#0_1" departPos="68.73" departSpeed="0.00" departDelay="0.58" arrival="207.00" arrivalLane="48788485#4_1" arrivalPos="201.27" arrivalSpeed="13.49" duration="199.00" routeLength="731.54" waitingTime="129.00" waitingCount="1" stopTime="0.00" timeLoss="144.46" rerouteNo="0" devices="tripinfo_veh14" vType="passenger" speedFactor="1.02" vaporized=""/>
    <tripinfo id="veh255" depart="136.00" departLane="-43547256#0_1" departPos="372.45" departSpeed="0.00" departDelay="0.85" arrival="207.00" arrivalLane="-43546064#0_1" arrivalPos="168.39" arrivalSpeed="13.25" duration="71.00" routeLength="862.53" waitingTime="0.00" waitingCount="0" stopTime="0.00" timeLoss="11.33" rerouteNo="0" devices="tripinfo_veh255" vType="passenger" speedFactor="1.07" vaporized=""/>
    <tripinfo id="veh204" depart="109.00" departLane="-48778493#0_1" departPos="3.24" departSpeed="0.00" departDelay="0.88" arrival="208.00" arrivalLane="-250295513_1" arrivalPos="43.99" arrivalSpeed="15.81" duration="99.00" routeLength="1412.84" waitingTime="0.00" waitingCount="0" stopTime="0.00" timeLoss="16.52" rerouteNo="0" devices="tripinfo_veh204" vType="passenger" speedFactor="1.26" vaporized=""/>
    <tripinfo id="veh88" depart="47.00" departLane="-258551317_1" departPos="58.65" departSpeed="0.00" departDelay="0.36" arrival="211.00" arrivalLane="43573547#6_1" arrivalPos="56.24" arrivalSpeed="13.05" duration="164.00" routeLength="1841.58" waitingTime="0.00" waitingCount="0" stopTime="0.00" timeLoss="27.53" rerouteNo="0" devices="tripinfo_veh88" vType="delivery" speedFactor="1.03" vaporized=""/>
    <tripinfo id="veh32" depart="17.00" departLane="-1135854210_1" departPos="11.91" departSpeed="0.00" departDelay="0.04" arrival="212.00" arrivalLane="222605087#1_1" arrivalPos="24.01" arrivalSpeed="4.69" duration="195.00" routeLength="2176.02" waitingTime="12.00" waitingCount="1" stopTime="0.00" timeLoss="36.96" rerouteNo="0" devices="tripinfo_veh32" vType="passenger" speedFactor="1.07" vaporized=""/>
    <tripinfo id="veh19" depart="11.00" departLane="48778500#2_1" departPos="207.88" departSpeed="0.00" departDelay="0.93" arrival="214.00" arrivalLane="-994066252#2_0" arrivalPos="0.85" arrivalSpeed="4.61" duration="203.00" routeLength="2418.61" waitingTime="0.00" waitingCount="0" stopTime="0.00" timeLoss="30.40" rerouteNo="0" devices="tripinfo_veh19" vType="passenger" speedFactor="1.03" vaporized=""/>
    <tripinfo id="veh61" depart="33.00" departLane="-995052182_0" departPos="18.34" departSpeed="0.00" departDelay="0.67" arrival="214.00" arrivalLane="48736610#0_1" arrivalPos="66.64" arrivalSpeed="14.15" duration="181.00" routeLength="1819.30" waitingTime="0.00" waitingCount="0" stopTime="0.00" timeLoss="19.15" rerouteNo="0" devices="tripinfo_veh61" vType="passenger" speedFactor="1.03" vaporized=""/>
    <tripinfo id="veh263" depart="142.00" departLane="-43544184#1_1" departPos="0.01" departSpeed="0.00" departDelay="2.61" arrival="222.00" arrivalLane="671642291_1" arrivalPos="61.56" arrivalSpeed="14.63" duration="80.00" routeLength="809.63" waitingTime="0.00" waitingCount="0" stopTime="0.00" timeLoss="21.47" rerouteNo="0" devices="tripinfo_veh263" vType="passenger" speedFactor="1.08" vaporized=""/>
    <tripinfo id="veh404" depart="215.00" departLane="-647998063#1_1" departPos="16.37" departSpeed="0.00" departDelay="0.88" arrival="222.00" arrivalLane="-647998063#1_1" arrivalPos="65.11" arrivalSpeed="13.33" duration="7.00" routeLength="48.74" waitingTime="0.00" waitingCount="0" stopTime="0.00" timeLoss="3.34" rerouteNo="0" devices="tripinfo_veh404" vType="passenger" speedFactor="1.07" vaporized=""/>
    <tripinfo id="veh258" depart="137.00" departLane="-48778499#0_1" departPos="1.77" departSpeed="0.00" departDelay="0.26" arrival="224.00" arrivalLane="43546115_1" arrivalPos="162.45" arrivalSpeed="9.41" duration="87.00" routeLength="939.13" waitingTime="0.00" waitingCount="0" stopTime="0.00" timeLoss="20.80" rerouteNo="0" devices="tripinfo_veh258" vType="passenger" speedFactor="1.09" vaporized=""/>
    <personinfo id="ped41" depart="205.00" type="DEFAULT_PEDTYPE" speedFactor="1.14" duration="20.00" waitingTime="0.00" timeLoss="2.11" traveltime="20.00">
        <walk depart="205.00" departPos="0.00" arrival="225.00" arrivalPos="28.43" duration="20.00" routeLength="28.43" timeLoss="2.11" maxSpeed="1.59"/>
    </personinfo>
    <tripinfo id="veh136" depart="73.00" departLane="43573478_1" departPos="92.64" departSpeed="0.00" departDelay="0.92" arrival="225.00" arrivalLane="43544179#10_1" arrivalPos="22.72" arrivalSpeed="12.67" duration="152.00" routeLength="1653.26" waitingTime="0.00" waitingCount="0" stopTime="0.00" timeLoss="19.21" rerouteNo="0" devices="tripinfo_veh136" vType="motorcycle" speedFactor="0.91" vaporized=""/>
    <personinfo id="ped10" depart="50.00" type="DEFAULT_PEDTYPE" speedFactor="1.10" duration="176.00" waitingTime="0.00" timeLoss="18.42" traveltime="176.00">
        <walk depart="50.00" departPos="0.00" arrival="226.00" arrivalPos="11.28" duration="176.00" routeLength="240.03" timeLoss="18.42" maxSpeed="1.52"/>
    </personinfo>
    <tripinfo id="veh31" depart="17.00" departLane="1050436320_0" departPos="153.30" departSpeed="0.00" departDelay="0.57" arrival="227.00" arrivalLane="1250915722#0_1" arrivalPos="65.49" arrivalSpeed="5.31" duration="210.00" routeLength="1671.89" waitingTime="11.00" waitingCount="2" stopTime="0.00" timeLoss="42.10" rerouteNo="0" devices="tripinfo_veh31" vType="passenger" speedFactor="1.03" vaporized=""/>
    <tripinfo id="veh123" depart="66.00" departLane="67712683_1" departPos="77.83" departSpeed="0.00" departDelay="0.81" arrival="230.00" arrivalLane="354252035_1" arrivalPos="106.56" arrivalSpeed="12.27" duration="164.00" routeLength="1219.29" waitingTime="47.00" waitingCount="1" stopTime="0.00" timeLoss="66.04" rerouteNo="0" devices="tripinfo_veh123" vType="passenger" speedFactor="0.94" vaporized=""/>
    <tripinfo id="veh3" depart="2.00" departLane="994066252#2_0" departPos="0.50" departSpeed="0.00" departDelay="0.41" arrival="231.00" arrivalLane="-48778473#0_1" arrivalPos="21.31" arrivalSpeed="13.29" duration="229.00" routeLength="1275.25" waitingTime="109.00" waitingCount="1" stopTime="0.00" timeLoss="134.82" rerouteNo="0" devices="tripinfo_veh3" vType="passenger" speedFactor="1.01" vaporized=""/>
    <tripinfo id="veh25" depart="14.00" departLane="40304754#5_1" departPos="102.76" departSpeed="0.00" departDelay="0.75" arrival="232.00" arrivalLane="-1250915722#3_1" arrivalPos="5.41" arrivalSpeed="5.31" duration="218.00" routeLength="1386.97" waitingTime="58.00" waitingCount="1" stopTime="0.00" timeLoss="88.08" rerouteNo="0" devices="tripinfo_veh25" vType="passenger" speedFactor="0.97" vaporized=""/>