<?xml version="1.0" encoding="UTF-8"?>

<!-- generated on 2025-06-12 11:45:12 by Eclipse SUMO sumo Version 1.22.0
<sumoConfiguration xmlns:xsi="http://www.w3.org/2001/XMLSchema-instance" xsi:noNamespaceSchemaLocation="http://sumo.dlr.de/xsd/sumoConfiguration.xsd">

    <input>
        <net-file value="E:/licenta/oras-mediu/2025-06-05-11-45-23/osm.net.xml"/>
        <route-files value="E:/licenta/oras-mediu/2025-06-05-11-45-23/full.rou.xml,E:/licenta/oras-mediu/2025-06-05-11-45-23/ ped.rou.xml,E:/licenta/oras-mediu/2025-06-05-11-45-23/ truck.rou.xml"/>
        <additional-files value="E:/licenta/oras-mediu/2025-06-05-11-45-23/osm.poly.xml,E:/licenta/oras-mediu/2025-06-05-11-45-23/ vtypes.xml"/>
    </input>

    <output>
        <summary-output value="E:/licenta/oras-mediu/2025-06-05-11-45-23/summary.xml"/>
        <tripinfo-output value="E:/licenta/oras-mediu/2025-06-05-11-45-23/tripinfo.xml"/>
    </output>

    <processing>
        <ignore-route-errors value="true"/>
        <tls.actuated.jam-threshold value="30"/>
    </processing>

    <routing>
        <device.rerouting.adaptation-steps value="18"/>
        <device.rerouting.adaptation-interval value="10"/>
    </routing>

    <report>
        <verbose value="true"/>
        <duration-log.statistics value="true"/>
        <no-step-log value="true"/>
    </report>

    <traci_server>
        <remote-port value="63293"/>
    </traci_server>

    <gui_only>
        <gui-settings-file value="E:/licenta/oras-mediu/2025-06-05-11-45-23/osm.view.xml"/>
    </gui_only>

</sumoConfiguration>
-->

<tripinfos xmlns:xsi="http://www.w3.org/2001/XMLSchema-instance" xsi:noNamespaceSchemaLocation="http://sumo.dlr.de/xsd/tripinfo_file.xsd">
    <tripinfo id="veh115" depart="49.00" departLane="1054663937_1" departPos="6.30" departSpeed="0.00" departDelay="0.70" arrival="81.00" arrivalLane="-48778446#1_1" arrivalPos="16.75" arrivalSpeed="13.53" duration="32.00" routeLength="343.40" waitingTime="0.00" waitingCount="0" stopTime="0.00" timeLoss="6.54" rerouteNo="0" devices="tripinfo_veh115" vType="passenger" speedFactor="1.11" vaporized=""/>
    <tripinfo id="veh91" depart="39.00" departLane="-48736602_1" departPos="109.18" departSpeed="0.00" departDelay="0.78" arrival="86.00" arrivalLane="48736655_1" arrivalPos="17.43" arrivalSpeed="12.05" duration="47.00" routeLength="436.59" waitingTime="0.00" waitingCount="0" stopTime="0.00" timeLoss="15.54" rerouteNo="0" devices="tripinfo_veh91" vType="passenger" speedFactor="1.10" vaporized=""/>
    <tripinfo id="veh43" depart="19.00" departLane="223883702_1" departPos="166.78" departSpeed="0.00" departDelay="0.94" arrival="87.00" arrivalLane="143207979#1_1" arrivalPos="43.59" arrivalSpeed="13.90" duration="68.00" routeLength="736.45" waitingTime="0.00" waitingCount="0" stopTime="0.00" timeLoss="15.10" rerouteNo="0" devices="tripinfo_veh43" vType="passenger" speedFactor="1.05" vaporized=""/>
    <tripinfo id="veh35" depart="15.00" departLane="40265793#1_1" departPos="2.80" departSpeed="0.00" departDelay="0.30" arrival="93.00" arrivalLane="-264868325_1" arrivalPos="96.14" arrivalSpeed="12.93" duration="78.00" routeLength="839.27" waitingTime="0.00" waitingCount="0" stopTime="0.00" timeLoss="13.86" rerouteNo="0" devices="tripinfo_veh35" vType="emergency" speedFactor="1.00" vaporized=""/>
    <tripinfo id="veh19" depart="8.00" departLane="1250915723#0_1" departPos="4.52" departSpeed="0.00" departDelay="0.02" arrival="104.00" arrivalLane="-92198452#1_1" arrivalPos="116.26" arrivalSpeed="14.06" duration="96.00" routeLength="891.06" waitingTime="5.00" waitingCount="1" stopTime="0.00" timeLoss="16.43" rerouteNo="0" devices="tripinfo_veh19" vType="passenger" speedFactor="1.03" vaporized=""/>
    <tripinfo id="veh18" depart="8.00" departLane="-222605084#4_1" departPos="9.01" departSpeed="0.00" departDelay="0.44" arrival="112.00" arrivalLane="992542691_0" arrivalPos="24.23" arrivalSpeed="3.94" duration="104.00" routeLength="710.61" waitingTime="1.00" waitingCount="1" stopTime="0.00" timeLoss="17.30" rerouteNo="0" devices="tripinfo_veh18" vType="passenger" speedFactor="0.87" vaporized=""/>
    <tripinfo id="veh73" depart="31.00" departLane="1054663953_0" departPos="7.35" departSpeed="0.00" departDelay="0.34" arrival="112.00" arrivalLane="-48736601_1" arrivalPos="280.11" arrivalSpeed="14.52" duration="81.00" routeLength="763.71" waitingTime="9.00" waitingCount="1" stopTime="0.00" timeLoss="23.11" rerouteNo="0" devices="tripinfo_veh73" vType="passenger" speedFactor="1.06" vaporized=""/>
    <tripinfo id="veh6" depart="3.00" departLane="-48736647#0_1" departPos="38.05" departSpeed="0.00" departDelay="0.48" arrival="117.00" arrivalLane="222609002#2_1" arrivalPos="15.40" arrivalSpeed="12.69" duration="114.00" routeLength="1274.34" waitingTime="0.00" waitingCount="0" stopTime="0.00" timeLoss="12.85" rerouteNo="0" devices="tripinfo_veh6" vType="passenger" speedFactor="0.92" vaporized=""/>
    <tripinfo id="veh11" depart="5.00" departLane="176279225#1_2" departPos="1.83" departSpeed="0.00" departDelay="0.38" arrival="118.00" arrivalLane="-48736612#7_1" arrivalPos="29.01" arrivalSpeed="13.22" duration="113.00" routeLength="1030.86" waitingTime="27.00" waitingCount="1" stopTime="0.00" timeLoss="39.62" rerouteNo="0" devices="tripinfo_veh11" vType="passenger" speedFactor="1.04" vaporized=""/>
    <tripinfo id="veh175" depart="74.00" departLane="222605084#1_1" departPos="0.07" departSpeed="0.00" departDelay="0.50" arrival="119.00" arrivalLane="-945793490#4_1" arrivalPos="51.67" arrivalSpeed="4.54" duration="45.00" routeLength="205.18" waitingTime="3.00" waitingCount="1" stopTime="0.00" timeLoss="9.28" rerouteNo="0" devices="tripinfo_veh175" vType="passenger" speedFactor="1.04" vaporized=""/>
    <tripinfo id="veh102" depart="43.00" departLane="859728205_0" departPos="60.56" departSpeed="0.00" departDelay="0.16" arrival="121.00" arrivalLane="48736613#0_1" arrivalPos="31.11" arrivalSpeed="13.64" duration="78.00" routeLength="956.95" waitingTime="0.00" waitingCount="0" stopTime="0.00" timeLoss="7.53" rerouteNo="0" devices="tripinfo_veh102" vType="passenger" speedFactor="1.03" vaporized=""/>
    <personinfo id="ped24" depart="120.00" type="DEFAULT_PEDTYPE" speedFactor="1.00" duration="2.00" waitingTime="0.00" timeLoss="0.96" traveltime="2.00">
        <walk depart="120.00" departPos="0.00" arrival="122.00" arrivalPos="1.45" duration="2.00" routeLength="1.45" timeLoss="0.96" maxSpeed="1.39"/>
    </personinfo>
    <tripinfo id="veh31" depart="14.00" departLane="43573769#1_1" departPos="27.07" departSpeed="0.00" departDelay="0.98" arrival="123.00" arrivalLane="-43546039#3_1" arrivalPos="47.87" arrivalSpeed="13.11" duration="109.00" routeLength="1136.01" waitingTime="0.00" waitingCount="0" stopTime="0.00" timeLoss="25.96" rerouteNo="0" devices="tripinfo_veh31" vType="passenger" speedFactor="1.03" vaporized=""/>
    <tripinfo id="veh147" depart="62.00" departLane="48797772_1" departPos="95.96" departSpeed="0.00" departDelay="0.26" arrival="126.00" arrivalLane="273836978#1_1" arrivalPos="68.56" arrivalSpeed="11.39" duration="64.00" routeLength="638.88" waitingTime="0.00" waitingCount="0" stopTime="0.00" timeLoss="13.79" rerouteNo="0" devices="tripinfo_veh147" vType="motorcycle" speedFactor="0.97" vaporized=""/>
    <tripinfo id="veh145" depart="61.00" departLane="-222605087#5_1" departPos="26.45" departSpeed="0.00" departDelay="0.10" arrival="128.00" arrivalLane="1250915722#3_1" arrivalPos="5.41" arrivalSpeed="4.97" duration="67.00" routeLength="271.66" waitingTime="0.00" waitingCount="0" stopTime="0.00" timeLoss="16.43" rerouteNo="0" devices="tripinfo_veh145" vType="motorcycle" speedFactor="0.98" vaporized=""/>
    <tripinfo id="veh32" depart="14.00" departLane="-1364605473_0" departPos="28.29" departSpeed="0.00" departDelay="0.56" arrival="131.00" arrivalLane="-40299739#2_1" arrivalPos="43.24" arrivalSpeed="14.16" duration="117.00" routeLength="1055.71" waitingTime="26.00" waitingCount="1" stopTime="0.00" timeLoss="40.98" rerouteNo="0" devices="tripinfo_veh32" vType="passenger" speedFactor="1.07" vaporized=""/>
    <tripinfo id="veh52" depart="22.00" departLane="-48778461#0_1" departPos="18.37" departSpeed="0.00" departDelay="0.16" arrival="132.00" arrivalLane="-43546519#2_1" arrivalPos="8.00" arrivalSpeed="10.39" duration="110.00" routeLength="1079.58" waitingTime="0.00" waitingCount="0" stopTime="0.00" timeLoss="25.98" rerouteNo="0" devices="tripinfo_veh52" vType="delivery" speedFactor="0.99" vaporized=""/>
    <tripinfo id="veh46" depart="20.00" departLane="470207092#0_1" departPos="213.40" departSpeed="0.00" departDelay="0.68" arrival="136.00" arrivalLane="43546648#6_1" arrivalPos="186.87" arrivalSpeed="12.00" duration="116.00" routeLength="1066.95" waitingTime="0.00" waitingCount="0" stopTime="0.00" timeLoss="23.43" rerouteNo="0" devices="tripinfo_veh46" vType="motorcycle" speedFactor="0.90" vaporized=""/>
    <tripinfo id="veh195" depart="82.00" departLane="-43544046_1" departPos="44.79" departSpeed="0.00" departDelay="0.10" arrival="138.00" arrivalLane="48778511_1" arrivalPos="75.86" arrivalSpeed="12.09" duration="56.00" routeLength="493.62" waitingTime="0.00" waitingCount="0" stopTime="0.00" timeLoss="12.61" rerouteNo="0" devices="tripinfo_veh195" vType="passenger" speedFactor="0.89" vaporized=""/>
    <tripinfo id="veh123" depart="52.00" departLane="48736650#2_1" departPos="3.99" departSpeed="0.00" departDelay="0.34" arrival="139.00" arrivalLane="43547579#0_1" arrivalPos="243.21" arrivalSpeed="12.94" duration="87.00" routeLength="958.52" waitingTime="0.00" waitingCount="0" stopTime="0.00" timeLoss="11.37" rerouteNo="0" devices="tripinfo_veh123" vType="passenger" speedFactor="0.94" vaporized=""/>
    <tripinfo id="veh33" depart="14.00" departLane="492965073#3_1" departPos="34.02" departSpeed="0.00" departDelay="0.14" arrival="148.00" arrivalLane="647610982#3_1" arrivalPos="42.20" arrivalSpeed="13.42" duration="134.00" routeLength="1735.81" waitingTime="0.00" waitingCount="0" stopTime="0.00" timeLoss="11.99" rerouteNo="0" devices="tripinfo_veh33" vType="passenger" speedFactor="1.04" vaporized=""/>
    <tripinfo id="veh13" depart="6.00" departLane="-48736614#2_1" departPos="40.80" departSpeed="0.00" departDelay="0.54" arrival="150.00" arrivalLane="48797767#0_1" arrivalPos="21.71" arrivalSpeed="10.83" duration="144.00" routeLength="1383.45" waitingTime="12.00" waitingCount="1" stopTime="0.00" timeLoss="39.62" rerouteNo="0" devices="tripinfo_veh13" vType="emergency" speedFactor="1.00" vaporized=""/>
    <tripinfo id="veh62" depart="27.00" departLane="-43546105#1_1" departPos="272.24" departSpeed="0.00" departDelay="0.96" arrival="150.00" arrivalLane="-383582508#0_0" arrivalPos="10.60" arrivalSpeed="4.97" duration="123.00" routeLength="1277.66" waitingTime="0.00" waitingCount="0" stopTime="0.00" timeLoss="25.65" rerouteNo="0" devices="tripinfo_veh62" vType="passenger" speedFactor="1.09" vaporized=""/>
    <tripinfo id="veh244" depart="103.00" departLane="-647998063#2_1" departPos="71.37" departSpeed="0.00" departDelay="0.52" arrival="151.00" arrivalLane="-222608881#1_1" arrivalPos="39.96" arrivalSpeed="13.54" duration="48.00" routeLength="453.71" waitingTime="0.00" waitingCount="0" stopTime="0.00" timeLoss="12.08" rerouteNo="0" devices="tripinfo_veh244" vType="passenger" speedFactor="0.98" vaporized=""/>
    <tripinfo id="veh16" depart="7.00" departLane="-48736666#1_1" departPos="11.38" departSpeed="0.00" departDelay="0.28" arrival="153.00" arrivalLane="-40314583#1_1" arrivalPos="68.45" arrivalSpeed="12.12" duration="146.00" routeLength="1455.02" waitingTime="4.00" waitingCount="1" stopTime="0.00" timeLoss="23.11" rerouteNo="0" devices="tripinfo_veh16" vType="passenger" speedFactor="0.89" vaporized=""/>
    <tripinfo id="veh48" depart="21.00" departLane="-43546789#2_1" departPos="35.26" departSpeed="0.00" departDelay="0.84" arrival="154.00" arrivalLane="40236232#1_1" arrivalPos="114.84" arrivalSpeed="14.03" duration="133.00" routeLength="913.08" waitingTime="0.00" waitingCount="0" stopTime="0.00" timeLoss="63.85" rerouteNo="0" devices="tripinfo_veh48" vType="passenger" speedFactor="1.02" vaporized=""/>
    <tripinfo id="veh241" depart="102.00" departLane="43547017#3_1" departPos="43.60" departSpeed="0.00" departDelay="0.78" arrival="154.00" arrivalLane="48778517#1_1" arrivalPos="40.09" arrivalSpeed="9.02" duration="52.00" routeLength="471.80" waitingTime="0.00" waitingCount="0" stopTime="0.00" timeLoss="16.06" rerouteNo="0" devices="tripinfo_veh241" vType="passenger" speedFactor="1.14" vaporized=""/>
    <tripinfo id="veh326" depart="137.00" departLane="264868333_1" departPos="41.74" departSpeed="0.00" departDelay="0.08" arrival="156.00" arrivalLane="-40314583#4_1" arrivalPos="32.60" arrivalSpeed="13.62" duration="19.00" routeLength="162.78" waitingTime="0.00" waitingCount="0" stopTime="0.00" timeLoss="6.37" rerouteNo="0" devices="tripinfo_veh326" vType="passenger" speedFactor="1.02" vaporized=""/>
    <tripinfo id="veh302" depart="127.00" departLane="-48778429#0_1" departPos="53.14" departSpeed="0.00" departDelay="0.16" arrival="157.00" arrivalLane="-48778429#0_1" arrivalPos="358.45" arrivalSpeed="11.85" duration="30.00" routeLength="305.31" waitingTime="0.00" waitingCount="0" stopTime="0.00" timeLoss="4.45" rerouteNo="0" devices="tripinfo_veh302" vType="passenger" speedFactor="0.86" vaporized=""/>
    <tripinfo id="veh59" depart="25.00" departLane="273835688_1" departPos="117.25" departSpeed="0.00" departDelay="0.22" arrival="158.00" arrivalLane="-250295383#0_1" arrivalPos="29.94" arrivalSpeed="15.10" duration="133.00" routeLength="991.14" waitingTime="37.00" waitingCount="1" stopTime="0.00" timeLoss="65.63" rerouteNo="0" devices="tripinfo_veh59" vType="passenger" speedFactor="1.12" vaporized=""/>
    <tripinfo id="veh90" depart="38.00" departLane="-33909936#4_1" departPos="13.81" departSpeed="0.00" departDelay="0.20" arrival="158.00" arrivalLane="-1250915724#2_1" arrivalPos="56.88" arrivalSpeed="4.69" duration="120.00" routeLength="1058.00" waitingTime="0.00" waitingCount="0" stopTime="0.00" timeLoss="13.61" rerouteNo="0" devices="tripinfo_veh90" vType="delivery" speedFactor="1.01" vaporized=""/>
    <tripinfo id="veh106" depart="45.00" departLane="-40334245#2_1" departPos="2.56" departSpeed="0.00" departDelay="0.48" arrival="159.00" arrivalLane="-1158942155_1" arrivalPos="54.46" arrivalSpeed="7.40" duration="114.00" routeLength="1186.53" waitingTime="0.00" waitingCount="0" stopTime="0.00" timeLoss="32.37" rerouteNo="0" devices="tripinfo_veh106" vType="motorcycle" speedFactor="1.10" vaporized=""/>
    <tripinfo id="veh75" depart="32.00" departLane="48778501_1" departPos="133.94" departSpeed="0.00" departDelay="0.50" arrival="160.00" arrivalLane="40265775#1_1" arrivalPos="76.38" arrivalSpeed="11.82" duration="128.00" routeLength="1337.75" waitingTime="0.00" waitingCount="0" stopTime="0.00" timeLoss="16.57" rerouteNo="0" devices="tripinfo_veh75" vType="passenger" speedFactor="0.91" vaporized=""/>
    <tripinfo id="veh204" depart="86.00" departLane="-40265774#0_1" departPos="1.12" departSpeed="0.00" departDelay="0.32" arrival="160.00" arrivalLane="-40304754#1_1" arrivalPos="327.29" arrivalSpeed="13.66" duration="74.00" routeLength="843.95" waitingTime="0.00" waitingCount="0" stopTime="0.00" timeLoss="13.22" rerouteNo="0" devices="tripinfo_veh204" vType="motorcycle" speedFactor="1.04" vaporized=""/>
    <tripinfo id="veh26" depart="11.00" departLane="40314883_1" departPos="20.37" departSpeed="0.00" departDelay="0.08" arrival="161.00" arrivalLane="-43546343#0_1" arrivalPos="138.35" arrivalSpeed="13.89" duration="150.00" routeLength="1457.35" waitingTime="25.00" waitingCount="2" stopTime="0.00" timeLoss="44.57" rerouteNo="0" devices="tripinfo_veh26" vType="motorcycle" speedFactor="1.02" vaporized=""/>
    <tripinfo id="veh37" depart="16.00" departLane="-48778508#2_1" departPos="0.04" departSpeed="0.00" departDelay="0.46" arrival="161.00" arrivalLane="-43546105#3_1" arrivalPos="36.33" arrivalSpeed="14.69" duration="145.00" routeLength="1740.28" waitingTime="0.00" waitingCount="0" stopTime="0.00" timeLoss="26.00" rerouteNo="0" devices="tripinfo_veh37" vType="passenger" speedFactor="1.09" vaporized=""/>
    <tripinfo id="veh40" depart="17.00" departLane="43544197#6_1" departPos="8.45" departSpeed="0.00" departDelay="0.20" arrival="162.00" arrivalLane="-40236144#1_1" arrivalPos="53.50" arrivalSpeed="13.67" duration="145.00" routeLength="1797.52" waitingTime="0.00" waitingCount="0" stopTime="0.00" timeLoss="19.45" rerouteNo="0" devices="tripinfo_veh40" vType="passenger" speedFactor="1.06" vaporized=""/>
    <tripinfo id="veh262" depart="111.00" departLane="383582512#0_0" departPos="33.07" departSpeed="0.00" departDelay="0.96" arrival="163.00" arrivalLane="43544179#12_1" arrivalPos="77.06" arrivalSpeed="14.61" duration="52.00" routeLength="545.73" waitingTime="0.00" waitingCount="0" stopTime="0.00" timeLoss="9.92" rerouteNo="0" devices="tripinfo_veh262" vType="passenger" speedFactor="1.09" vaporized=""/>
    <tripinfo id="veh2" depart="1.00" departLane="-33909936#4_1" departPos="7.39" departSpeed="0.00" departDelay="0.16" arrival="164.00" arrivalLane="43546053#0_1" arrivalPos="315.70" arrivalSpeed="14.34" duration="163.00" routeLength="1884.62" waitingTime="2.00" waitingCount="1" stopTime="0.00" timeLoss="27.87" rerouteNo="0" devices="tripinfo_veh2" vType="passenger" speedFactor="1.08" vaporized=""/>
    <tripinfo id="veh98" depart="42.00" departLane="647998063#2_1" departPos="67.03" departSpeed="0.00" departDelay="0.84" arrival="169.00" arrivalLane="48778515_1" arrivalPos="19.64" arrivalSpeed="5.68" duration="127.00" routeLength="1204.50" waitingTime="0.00" waitingCount="0" stopTime="0.00" timeLoss="26.70" rerouteNo="0" devices="tripinfo_veh98" vType="motorcycle" speedFactor="0.94" vaporized=""/>
    <personinfo id="ped9" depart="45.00" type="DEFAULT_PEDTYPE" speedFactor="0.95" duration="127.00" waitingTime="0.00" timeLoss="12.47" traveltime="127.00">
        <walk depart="45.00" departPos="0.00" arrival="172.00" arrivalPos="37.98" duration="127.00" routeLength="151.10" timeLoss="12.47" maxSpeed="1.32"/>
    </personinfo>
    <tripinfo id="veh22" depart="10.00" departLane="-647226815#0_1" departPos="30.40" departSpeed="0.00" departDelay="0.76" arrival="172.00" arrivalLane="-48778475#2_1" arrivalPos="60.74" arrivalSpeed="15.64" duration="162.00" routeLength="2055.93" waitingTime="1.00" waitingCount="1" stopTime="0.00" timeLoss="29.61" rerouteNo="0" devices="tripinfo_veh22" vType="passenger" speedFactor="1.15" vaporized=""/>
    <tripinfo id="veh316" depart="133.00" departLane="578560104#6_1" departPos="65.37" departSpeed="0.00" departDelay="0.28" arrival="172.00" arrivalLane="-1136283379#0_1" arrivalPos="91.86" arrivalSpeed="7.94" duration="39.00" routeLength="247.87" waitingTime="3.00" waitingCount="1" stopTime="0.00" timeLoss="14.52" rerouteNo="0" devices="tripinfo_veh316" vType="passenger" speedFactor="1.07" vaporized=""/>
    <tripinfo id="veh185" depart="78.00" departLane="43573478_1" departPos="155.44" departSpeed="0.00" departDelay="0.30" arrival="175.00" arrivalLane="-92198453#3_1" arrivalPos="0.20" arrivalSpeed="12.51" duration="97.00" routeLength="996.81" waitingTime="0.00" waitingCount="0" stopTime="0.00" timeLoss="15.68" rerouteNo="0" devices="tripinfo_veh185" vType="passenger" speedFactor="0.92" vaporized=""/>
    <tripinfo id="veh80" depart="34.00" departLane="258551284#0_1" departPos="83.63" departSpeed="0.00" departDelay="0.40" arrival="176.00" arrivalLane="250295384_1" arrivalPos="124.18" arrivalSpeed="13.11" duration="142.00" routeLength="1592.90" waitingTime="0.00" waitingCount="0" stopTime="0.00" timeLoss="20.33" rerouteNo="0" devices="tripinfo_veh80" vType="delivery" speedFactor="0.98" vaporized=""/>
    <tripinfo id="veh3" depart="2.00" departLane="-994065252_0" departPos="6.96" departSpeed="0.00" departDelay="0.74" arrival="177.00" arrivalLane="143207979#3_1" arrivalPos="38.67" arrivalSpeed="11.85" duration="175.00" routeLength="1733.10" waitingTime="0.00" waitingCount="0" stopTime="0.00" timeLoss="20.92" rerouteNo="0" devices="tripinfo_veh3" vType="passenger" speedFactor="0.94" vaporized=""/>
    <tripinfo id="veh49" depart="21.00" departLane="-40236203#2_1" departPos="4.67" departSpeed="0.00" departDelay="0.42" arrival="179.00" arrivalLane="-43544001#2_1" arrivalPos="52.62" arrivalSpeed="13.34" duration="158.00" routeLength="1843.10" waitingTime="0.00" waitingCount="0" stopTime="0.00" timeLoss="20.03" rerouteNo="0" devices="tripinfo_veh49" vType="passenger" speedFactor="1.00" vaporized=""/>
    <tripinfo id="veh219" depart="92.00" departLane="48778446#1_1" departPos="4.74" departSpeed="0.00" departDelay="0.02" arrival="179.00" arrivalLane="48797766#0_1" arrivalPos="21.21" arrivalSpeed="12.88" duration="87.00" routeLength="855.77" waitingTime="0.00" waitingCount="0" stopTime="0.00" timeLoss="15.70" rerouteNo="0" devices="tripinfo_veh219" vType="passenger" speedFactor="0.94" vaporized=""/>
    <tripinfo id="veh113" depart="48.00" departLane="-222605087#2_1" departPos="9.44" departSpeed="0.00" departDelay="0.54" arrival="180.00" arrivalLane="-1136117610_0" arrivalPos="80.17" arrivalSpeed="1.60" duration="132.00" routeLength="1098.09" waitingTime="0.00" waitingCount="0" stopTime="0.00" timeLoss="19.35" rerouteNo="0" devices="tripinfo_veh113" vType="passenger" speedFactor="1.02" vaporized=""/>
    <tripinfo id="veh289" depart="122.00" departLane="-67736383_1" departPos="31.40" departSpeed="0.00" departDelay="0.62" arrival="180.00" arrivalLane="-48778520_1" arrivalPos="53.92" arrivalSpeed="14.19" duration="58.00" routeLength="576.93" waitingTime="0.00" waitingCount="0" stopTime="0.00" timeLoss="13.17" rerouteNo="0" devices="tripinfo_veh289" vType="motorcycle" speedFactor="1.02" vaporized=""/>
    <tripinfo id="veh139" depart="59.00" departLane="43544179#4_1" departPos="15.68" departSpeed="0.00" departDelay="0.62" arrival="182.00" arrivalLane="48778500#0_1" arrivalPos="18.03" arrivalSpeed="10.83" duration="123.00" routeLength="1212.92" waitingTime="0.00" waitingCount="0" stopTime="0.00" timeLoss="19.43" rerouteNo="0" devices="tripinfo_veh139" vType="passenger" speedFactor="0.90" vaporized=""/>
    <tripinfo id="veh1" depart="1.00" departLane="-222609002#1_1" departPos="1.12" departSpeed="0.00" departDelay="0.58" arrival="185.00" arrivalLane="353939585#1_1" arrivalPos="304.47" arrivalSpeed="13.79" duration="184.00" routeLength="791.48" waitingTime="112.00" waitingCount="2" stopTime="0.00" timeLoss="129.90" rerouteNo="0" devices="tripinfo_veh1" vType="passenger" speedFactor="1.08" vaporized=""/>
    <tripinfo id="veh216" depart="91.00" departLane="43546053#1_1" departPos="31.36" departSpeed="0.00" departDelay="0.28" arrival="187.00" arrivalLane="48778521#1_1" arrivalPos="26.80" arrivalSpeed="7.91" duration="96.00" routeLength="929.87" waitingTime="0.00" waitingCount="0" stopTime="0.00" timeLoss="16.26" rerouteNo="0" devices="tripinfo_veh216" vType="passenger" speedFactor="0.96" vaporized=""/>
    <tripinfo id="veh188" depart="79.00" departLane="-48797769_1" departPos="9.84" departSpeed="0.00" departDelay="0.04" arrival="188.00" arrivalLane="48778478#0_1" arrivalPos="0.20" arrivalSpeed="8.00" duration="109.00" routeLength="1043.07" waitingTime="1.00" waitingCount="1" stopTime="0.00" timeLoss="35.54" rerouteNo="0" devices="tripinfo_veh188" vType="passenger" speedFactor="1.11" vaporized=""/>
    <personinfo id="ped16" depart="80.00" type="DEFAULT_PEDTYPE" speedFactor="1.12" duration="109.00" waitingTime="0.00" timeLoss="11.06" traveltime="109.00">
        <walk depart="80.00" departPos="0.00" arrival="189.00" arrivalPos="62.30" duration="109.00" routeLength="151.83" timeLoss="11.06" maxSpeed="1.55"/>
    </personinfo>
    <tripinfo id="veh273" depart="115.00" departLane="-40314583#4_1" departPos="10.90" departSpeed="0.00" departDelay="0.34" arrival="189.00" arrivalLane="-48736614#0_1" arrivalPos="85.72" arrivalSpeed="11.95" duration="74.00" routeLength="738.08" waitingTime="0.00" waitingCount="0" stopTime="0.00" timeLoss="13.83" rerouteNo="0" devices="tripinfo_veh273" vType="passenger" speedFactor="0.93" vaporized=""/>
    <tripinfo id="veh12" depart="6.00" departLane="-48778427_1" departPos="126.24" departSpeed="0.00" departDelay="0.96" arrival="190.00" arrivalLane="222605084#0_1" arrivalPos="0.21" arrivalSpeed="4.68" duration="184.00" routeLength="2045.36" waitingTime="0.00" waitingCount="0" stopTime="0.00" timeLoss="18.36" rerouteNo="0" devices="tripinfo_veh12" vType="delivery" speedFactor="0.97" vaporized=""/>
    <tripinfo id="veh137" depart="58.00" departLane="-1205541343#1_1" departPos="12.95" departSpeed="0.00" departDelay="0.46" arrival="190.00" arrivalLane="-859726677#1_1" arrivalPos="0.20" arrivalSpeed="5.40" duration="132.00" routeLength="1458.35" waitingTime="2.00" waitingCount="1" stopTime="0.00" timeLoss="15.33" rerouteNo="0" devices="tripinfo_veh137" vType="passenger" speedFactor="0.98" vaporized=""/>
    <tripinfo id="veh15" depart="7.00" departLane="-43544001#11_1" departPos="31.32" departSpeed="0.00" departDelay="0.70" arrival="192.00" arrivalLane="43544138#1_1" arrivalPos="28.80" arrivalSpeed="4.47" duration="185.00" routeLength="765.45" waitingTime="0.00" waitingCount="0" stopTime="0.00" timeLoss="13.68" rerouteNo="0" devices="tripinfo_veh15" vType="bicycle" speedFactor="0.80" vaporized=""/>
    <tripinfo id="veh108" depart="46.00" departLane="92198452#0_1" departPos="12.02" departSpeed="0.00" departDelay="0.64" arrival="192.00" arrivalLane="48778500#0_1" arrivalPos="18.03" arrivalSpeed="8.74" duration="146.00" routeLength="1207.82" waitingTime="14.00" waitingCount="1" stopTime="0.00" timeLoss="38.14" rerouteNo="0" devices="tripinfo_veh108" vType="motorcycle" speedFactor="0.84" vaporized=""/>
    <tripinfo id="veh76" depart="32.00" departLane="43546039#3_1" departPos="15.36" departSpeed="0.00" departDelay="0.08" arrival="193.00" arrivalLane="-984521611#0_0" arrivalPos="6.06" arrivalSpeed="5.82" duration="161.00" routeLength="1761.70" waitingTime="1.00" waitingCount="1" stopTime="0.00" timeLoss="39.10" rerouteNo="0" devices="tripinfo_veh76" vType="passenger" speedFactor="1.14" vaporized=""/>
    <tripinfo id="veh222" depart="94.00" departLane="48778500#2_1" departPos="111.50" departSpeed="0.00" departDelay="0.76" arrival="193.00" arrivalLane="353939586#1_1" arrivalPos="265.14" arrivalSpeed="5.80" duration="99.00" routeLength="932.43" waitingTime="3.00" waitingCount="1" stopTime="0.00" timeLoss="25.13" rerouteNo="0" devices="tripinfo_veh222" vType="delivery" speedFactor="0.93" vaporized=""/>
    <tripinfo id="veh224" depart="95.00" departLane="383582518#0_0" departPos="37.20" departSpeed="0.00" departDelay="0.92" arrival="193.00" arrivalLane="647998063#3_1" arrivalPos="114.77" arrivalSpeed="11.68" duration="98.00" routeLength="894.92" waitingTime="0.00" waitingCount="0" stopTime="0.00" timeLoss="14.80" rerouteNo="0" devices="tripinfo_veh224" vType="passenger" speedFactor="0.85" vaporized=""/>
    <tripinfo id="veh23" depart="10.00" departLane="1378376381_1" departPos="53.05" departSpeed="0.00" departDelay="0.34" arrival="194.00" arrivalLane="222608881#1_1" arrivalPos="39.96" arrivalSpeed="14.45" duration="184.00" routeLength="2429.71" waitingTime="0.00" waitingCount="0" stopTime="0.00" timeLoss="25.27" rerouteNo="0" devices="tripinfo_veh23" vType="passenger" speedFactor="1.12" vaporized=""/>
    <tripinfo id="veh78" depart="33.00" departLane="-992542691_0" departPos="12.62" departSpeed="0.00" departDelay="0.24" arrival="195.00" arrivalLane="25379984#0_1" arrivalPos="136.07" arrivalSpeed="9.00" duration="162.00" routeLength="1653.50" waitingTime="14.00" waitingCount="1" stopTime="0.00" timeLoss="38.35" rerouteNo="0" devices="tripinfo_veh78" vType="emergency" speedFactor="1.00" vaporized=""/>
    <tripinfo id="veh258" depart="109.00" departLane="223883703_0" departPos="20.96" departSpeed="0.00" departDelay="0.64" arrival="197.00" arrivalLane="671386628#1_1" arrivalPos="211.01" arrivalSpeed="10.84" duration="88.00" routeLength="852.23" waitingTime="0.00" waitingCount="0" stopTime="0.00" timeLoss="16.08" rerouteNo="0" devices="tripinfo_veh258" vType="motorcycle" speedFactor="0.99" vaporized=""/>
    <tripinfo id="veh287" depart="121.00" departLane="-1136283361_0" departPos="18.16" departSpeed="0.00" departDelay="0.46" arrival="198.00" arrivalLane="48797774_1" arrivalPos="99.58" arrivalSpeed="12.99" duration="77.00" routeLength="548.66" waitingTime="7.00" waitingCount="1" stopTime="0.00" timeLoss="24.98" rerouteNo="0" devices="tripinfo_veh287" vType="delivery" speedFactor="0.97" vaporized=""/>
    <tripinfo id="veh266" depart="112.00" departLane="40299264#2_1" departPos="7.93" departSpeed="0.00" departDelay="0.28" arrival="199.00" arrivalLane="250295383#4_1" arrivalPos="21.91" arrivalSpeed="13.83" duration="87.00" routeLength="1045.85" waitingTime="0.00" waitingCount="0" stopTime="0.00" timeLoss="14.23" rerouteNo="0" devices="tripinfo_veh266" vType="passenger" speedFactor="1.08" vaporized=""/>
    <tripinfo id="veh401" depart="169.00" departLane="578560104#6_1" departPos="79.28" departSpeed="0.00" departDelay="0.58" arrival="199.00" arrivalLane="859732802#0_0" arrivalPos="5.59" arrivalSpeed="4.50" duration="30.00" routeLength="218.42" waitingTime="0.00" waitingCount="0" stopTime="0.00" timeLoss="6.72" rerouteNo="0" devices="tripinfo_veh401" vType="passenger" speedFactor="0.83" vaporized=""/>
    <tripinfo id="veh220" depart="93.00" departLane="-671386628#1_1" departPos="183.25" departSpeed="0.00" departDelay="0.60" arrival="201.00" arrivalLane="-40345956#2_1" arrivalPos="19.04" arrivalSpeed="14.74" duration="108.00" routeLength="1095.83" waitingTime="15.00" waitingCount="1" stopTime="0.00" timeLoss="35.19" rerouteNo="0" devices="tripinfo_veh220" vType="delivery" speedFactor="1.13" vaporized=""/>