<?xml version="1.0" encoding="UTF-8"?>

<!-- generated on 2025-06-12 11:06:42 by Eclipse SUMO sumo Version 1.22.0
<sumoConfiguration xmlns:xsi="http://www.w3.org/2001/XMLSchema-instance" xsi:noNamespaceSchemaLocation="http://sumo.dlr.de/xsd/sumoConfiguration.xsd">

    <input>
        <net-file value="E:/licenta/oras-mediu/2025-06-05-11-45-23/osm.net.xml"/>
        <route-files value="E:/licenta/oras-mediu/2025-06-05-11-45-23/full.rou.xml,E:/licenta/oras-mediu/2025-06-05-11-45-23/ ped.rou.xml,E:/licenta/oras-mediu/2025-06-05-11-45-23/ truck.rou.xml"/>
        <additional-files value="E:/licenta/oras-mediu/2025-06-05-11-45-23/osm.poly.xml,E:/licenta/oras-mediu/2025-06-05-11-45-23/ vtypes.xml"/>
    </input>

    <output>
        <summary-output value="E:/licenta/oras-mediu/2025-06-05-11-45-23/summary.xml"/>
        <tripinfo-output value="E:/licenta/oras-mediu/2025-06-05-11-45-23/tripinfo.xml"/>
    </output>

    <processing>
        <ignore-route-errors value="true"/>
        <tls.actuated.jam-threshold value="30"/>
    </processing>

    <routing>
        <device.rerouting.adaptation-steps value="18"/>
        <device.rerouting.adaptation-interval value="10"/>
    </routing>

    <report>
        <verbose value="true"/>
        <duration-log.statistics value="true"/>
        <no-step-log value="true"/>
    </report>

    <traci_server>
        <remote-port value="62023"/>
    </traci_server>

    <gui_only>
        <gui-settings-file value="E:/licenta/oras-mediu/2025-06-05-11-45-23/osm.view.xml"/>
    </gui_only>

</sumoConfiguration>
-->

<tripinfos xmlns:xsi="http://www.w3.org/2001/XMLSchema-instance" xsi:noNamespaceSchemaLocation="http://sumo.dlr.de/xsd/tripinfo_file.xsd">
    <tripinfo id="veh4" depart="3.00" departLane="-33909936#1_1" departPos="32.92" departSpeed="0.00" departDelay="0.16" arrival="77.00" arrivalLane="-1250915720#4_1" arrivalPos="21.24" arrivalSpeed="4.60" duration="74.00" routeLength="720.60" waitingTime="0.00" waitingCount="0" stopTime="0.00" timeLoss="9.33" rerouteNo="0" devices="tripinfo_veh4" vType="passenger" speedFactor="1.02" vaporized=""/>
    <tripinfo id="veh29" depart="21.00" departLane="-250295383#0_1" departPos="18.42" departSpeed="0.00" departDelay="0.41" arrival="86.00" arrivalLane="48778464#0_1" arrivalPos="23.97" arrivalSpeed="12.23" duration="65.00" routeLength="347.58" waitingTime="26.00" waitingCount="1" stopTime="0.00" timeLoss="38.19" rerouteNo="0" devices="tripinfo_veh29" vType="passenger" speedFactor="1.03" vaporized=""/>
    <tripinfo id="veh11" depart="8.00" departLane="-40330575#1_1" departPos="1.11" departSpeed="0.00" departDelay="0.19" arrival="90.00" arrivalLane="-647383048_1" arrivalPos="106.54" arrivalSpeed="12.51" duration="82.00" routeLength="897.30" waitingTime="0.00" waitingCount="0" stopTime="0.00" timeLoss="12.88" rerouteNo="0" devices="tripinfo_veh11" vType="delivery" speedFactor="0.97" vaporized=""/>
    <tripinfo id="veh1" depart="1.00" departLane="40236153#1_1" departPos="4.79" departSpeed="0.00" departDelay="0.29" arrival="119.00" arrivalLane="48778499#0_1" arrivalPos="44.27" arrivalSpeed="14.39" duration="118.00" routeLength="1306.81" waitingTime="0.00" waitingCount="0" stopTime="0.00" timeLoss="24.85" rerouteNo="0" devices="tripinfo_veh1" vType="passenger" speedFactor="1.08" vaporized=""/>
    <tripinfo id="veh23" depart="17.00" departLane="48797765#2_1" departPos="13.51" departSpeed="0.00" departDelay="0.67" arrival="122.00" arrivalLane="273835686#0_1" arrivalPos="75.56" arrivalSpeed="12.52" duration="105.00" routeLength="1007.08" waitingTime="0.00" waitingCount="0" stopTime="0.00" timeLoss="25.35" rerouteNo="0" devices="tripinfo_veh23" vType="passenger" speedFactor="0.99" vaporized=""/>
    <tripinfo id="veh47" depart="34.00" departLane="143207979#6_1" departPos="179.05" departSpeed="0.00" departDelay="0.63" arrival="123.00" arrivalLane="-33909936#4_1" arrivalPos="15.04" arrivalSpeed="14.85" duration="89.00" routeLength="1123.60" waitingTime="0.00" waitingCount="0" stopTime="0.00" timeLoss="14.03" rerouteNo="0" devices="tripinfo_veh47" vType="passenger" speedFactor="1.12" vaporized=""/>
    <personinfo id="ped5" depart="25.00" type="DEFAULT_PEDTYPE" speedFactor="1.07" duration="101.00" waitingTime="0.00" timeLoss="10.84" traveltime="101.00">
        <walk depart="25.00" departPos="0.00" arrival="126.00" arrivalPos="25.84" duration="101.00" routeLength="134.44" timeLoss="10.84" maxSpeed="1.49"/>
    </personinfo>
    <tripinfo id="veh39" depart="28.00" departLane="-48778449#0_1" departPos="14.01" departSpeed="0.00" departDelay="0.31" arrival="127.00" arrivalLane="647621858_0" arrivalPos="84.34" arrivalSpeed="5.64" duration="99.00" routeLength="897.42" waitingTime="4.00" waitingCount="1" stopTime="0.00" timeLoss="30.59" rerouteNo="0" devices="tripinfo_veh39" vType="passenger" speedFactor="1.17" vaporized=""/>
    <tripinfo id="veh24" depart="18.00" departLane="-143207979#8_1" departPos="35.84" departSpeed="0.00" departDelay="0.96" arrival="131.00" arrivalLane="-67712683_1" arrivalPos="77.22" arrivalSpeed="12.56" duration="113.00" routeLength="1223.73" waitingTime="0.00" waitingCount="0" stopTime="0.00" timeLoss="19.33" rerouteNo="0" devices="tripinfo_veh24" vType="passenger" speedFactor="0.97" vaporized=""/>
    <tripinfo id="veh140" depart="100.00" departLane="48736617#1_1" departPos="94.00" departSpeed="0.00" departDelay="0.60" arrival="133.00" arrivalLane="-143207982#5_1" arrivalPos="37.52" arrivalSpeed="12.07" duration="33.00" routeLength="300.70" waitingTime="0.00" waitingCount="0" stopTime="0.00" timeLoss="8.85" rerouteNo="0" devices="tripinfo_veh140" vType="motorcycle" speedFactor="1.02" vaporized=""/>
    <tripinfo id="veh146" depart="105.00" departLane="-1250915720#0_1" departPos="1.06" departSpeed="0.00" departDelay="1.34" arrival="140.00" arrivalLane="1250915722#4_1" arrivalPos="56.95" arrivalSpeed="4.68" duration="35.00" routeLength="156.98" waitingTime="0.00" waitingCount="0" stopTime="0.00" timeLoss="4.52" rerouteNo="0" devices="tripinfo_veh146" vType="passenger" speedFactor="0.93" vaporized=""/>
    <tripinfo id="veh57" depart="41.00" departLane="40236203#0_1" departPos="2.63" departSpeed="0.00" departDelay="0.53" arrival="144.00" arrivalLane="-222609002#4_1" arrivalPos="52.31" arrivalSpeed="13.18" duration="103.00" routeLength="1177.06" waitingTime="0.00" waitingCount="0" stopTime="0.00" timeLoss="17.15" rerouteNo="0" devices="tripinfo_veh57" vType="passenger" speedFactor="1.03" vaporized=""/>
    <tripinfo id="veh38" depart="27.00" departLane="48778499#0_1" departPos="29.90" departSpeed="0.00" departDelay="0.02" arrival="147.00" arrivalLane="48778431#4_1" arrivalPos="151.14" arrivalSpeed="13.89" duration="120.00" routeLength="1246.32" waitingTime="11.00" waitingCount="1" stopTime="0.00" timeLoss="32.66" rerouteNo="0" devices="tripinfo_veh38" vType="passenger" speedFactor="1.06" vaporized=""/>
    <tripinfo id="veh5" depart="4.00" departLane="48778500#0_1" departPos="13.43" departSpeed="0.00" departDelay="0.45" arrival="149.00" arrivalLane="48778475#0_1" arrivalPos="50.36" arrivalSpeed="13.90" duration="145.00" routeLength="1671.03" waitingTime="0.00" waitingCount="0" stopTime="0.00" timeLoss="24.44" rerouteNo="0" devices="tripinfo_veh5" vType="delivery" speedFactor="1.05" vaporized=""/>
    <personinfo id="ped20" depart="100.00" type="DEFAULT_PEDTYPE" speedFactor="0.97" duration="51.00" waitingTime="0.00" timeLoss="5.26" traveltime="51.00">
        <walk depart="100.00" departPos="0.00" arrival="151.00" arrivalPos="38.68" duration="51.00" routeLength="61.43" timeLoss="5.26" maxSpeed="1.34"/>
    </personinfo>
    <personinfo id="ped14" depart="70.00" type="DEFAULT_PEDTYPE" speedFactor="0.91" duration="86.00" waitingTime="0.00" timeLoss="10.22" traveltime="86.00">
        <walk depart="70.00" departPos="0.00" arrival="156.00" arrivalPos="20.89" duration="86.00" routeLength="95.38" timeLoss="10.22" maxSpeed="1.26"/>
    </personinfo>
    <tripinfo id="veh25" depart="18.00" departLane="-48778493#0_1" departPos="0.44" departSpeed="0.00" departDelay="0.25" arrival="162.00" arrivalLane="40266907#0_1" arrivalPos="33.90" arrivalSpeed="11.42" duration="144.00" routeLength="994.26" waitingTime="54.00" waitingCount="1" stopTime="0.00" timeLoss="69.88" rerouteNo="0" devices="tripinfo_veh25" vType="motorcycle" speedFactor="1.02" vaporized=""/>
    <tripinfo id="veh52" depart="37.00" departLane="383582508#0_0" departPos="7.06" departSpeed="0.00" departDelay="0.08" arrival="162.00" arrivalLane="945793491#1_1" arrivalPos="67.96" arrivalSpeed="4.15" duration="125.00" routeLength="959.60" waitingTime="0.00" waitingCount="0" stopTime="0.00" timeLoss="15.15" rerouteNo="0" devices="tripinfo_veh52" vType="passenger" speedFactor="0.95" vaporized=""/>
    <tripinfo id="veh33" depart="24.00" departLane="-1136279388_0" departPos="29.28" departSpeed="0.00" departDelay="0.57" arrival="173.00" arrivalLane="-48736620#1_2" arrivalPos="60.00" arrivalSpeed="12.91" duration="149.00" routeLength="342.65" waitingTime="110.00" waitingCount="1" stopTime="0.00" timeLoss="121.76" rerouteNo="0" devices="tripinfo_veh33" vType="emergency" speedFactor="1.00" vaporized=""/>
    <tripinfo id="veh41" depart="30.00" departLane="-40269009#0_1" departPos="20.29" departSpeed="0.00" departDelay="0.89" arrival="174.00" arrivalLane="-40304754#5_1" arrivalPos="153.81" arrivalSpeed="12.63" duration="144.00" routeLength="1599.49" waitingTime="0.00" waitingCount="0" stopTime="0.00" timeLoss="23.61" rerouteNo="0" devices="tripinfo_veh41" vType="motorcycle" speedFactor="1.00" vaporized=""/>
    <tripinfo id="veh123" depart="88.00" departLane="-1136289987_1" departPos="27.04" departSpeed="0.00" departDelay="0.67" arrival="177.00" arrivalLane="-43544138#2_1" arrivalPos="0.25" arrivalSpeed="12.25" duration="89.00" routeLength="830.67" waitingTime="0.00" waitingCount="0" stopTime="0.00" timeLoss="15.46" rerouteNo="0" devices="tripinfo_veh123" vType="passenger" speedFactor="0.92" vaporized=""/>
    <tripinfo id="veh97" depart="69.00" departLane="43546935#0_1" departPos="79.33" departSpeed="0.00" departDelay="0.13" arrival="178.00" arrivalLane="43545645#1_1" arrivalPos="98.66" arrivalSpeed="14.13" duration="109.00" routeLength="1119.63" waitingTime="1.00" waitingCount="1" stopTime="0.00" timeLoss="26.45" rerouteNo="0" devices="tripinfo_veh97" vType="passenger" speedFactor="1.02" vaporized=""/>
    <tripinfo id="veh171" depart="122.00" departLane="250295380#0_1" departPos="10.35" departSpeed="0.00" departDelay="0.59" arrival="178.00" arrivalLane="40236203#2_1" arrivalPos="10.97" arrivalSpeed="13.19" duration="56.00" routeLength="576.73" waitingTime="0.00" waitingCount="0" stopTime="0.00" timeLoss="12.14" rerouteNo="0" devices="tripinfo_veh171" vType="passenger" speedFactor="1.04" vaporized=""/>
    <tripinfo id="veh2" depart="2.00" departLane="-143207979#8_1" departPos="22.78" departSpeed="0.00" departDelay="0.58" arrival="180.00" arrivalLane="222605086_1" arrivalPos="27.07" arrivalSpeed="5.49" duration="178.00" routeLength="2177.17" waitingTime="2.00" waitingCount="1" stopTime="0.00" timeLoss="25.91" rerouteNo="0" devices="tripinfo_veh2" vType="passenger" speedFactor="1.08" vaporized=""/>
    <tripinfo id="veh102" depart="73.00" departLane="-48778429#2_1" departPos="100.54" departSpeed="0.00" departDelay="0.58" arrival="180.00" arrivalLane="-859728208#1_0" arrivalPos="0.20" arrivalSpeed="4.48" duration="107.00" routeLength="1122.81" waitingTime="0.00" waitingCount="0" stopTime="0.00" timeLoss="19.67" rerouteNo="0" devices="tripinfo_veh102" vType="motorcycle" speedFactor="1.10" vaporized=""/>
    <tripinfo id="veh84" depart="60.00" departLane="48778505#1_1" departPos="48.77" departSpeed="0.00" departDelay="0.36" arrival="181.00" arrivalLane="354259933#2_1" arrivalPos="84.82" arrivalSpeed="12.51" duration="121.00" routeLength="1308.02" waitingTime="0.00" waitingCount="0" stopTime="0.00" timeLoss="20.08" rerouteNo="0" devices="tripinfo_veh84" vType="passenger" speedFactor="0.98" vaporized=""/>
    <tripinfo id="veh43" depart="31.00" departLane="-647998063#3_1" departPos="0.10" departSpeed="0.00" departDelay="0.47" arrival="183.00" arrivalLane="43545645#2_1" arrivalPos="314.77" arrivalSpeed="10.37" duration="152.00" routeLength="1551.06" waitingTime="0.00" waitingCount="0" stopTime="0.00" timeLoss="23.79" rerouteNo="0" devices="tripinfo_veh43" vType="motorcycle" speedFactor="0.90" vaporized=""/>
    <tripinfo id="veh22" depart="16.00" departLane="48778481#9_2" departPos="151.58" departSpeed="0.00" departDelay="0.38" arrival="184.00" arrivalLane="43544202#0_1" arrivalPos="273.61" arrivalSpeed="14.75" duration="168.00" routeLength="2074.39" waitingTime="0.00" waitingCount="0" stopTime="0.00" timeLoss="30.16" rerouteNo="0" devices="tripinfo_veh22" vType="passenger" speedFactor="1.12" vaporized=""/>
    <personinfo id="ped30" depart="150.00" type="DEFAULT_PEDTYPE" speedFactor="1.02" duration="35.00" waitingTime="0.00" timeLoss="6.91" traveltime="35.00">
        <walk depart="150.00" departPos="0.00" arrival="185.00" arrivalPos="28.12" duration="35.00" routeLength="39.80" timeLoss="6.91" maxSpeed="1.42"/>
    </personinfo>
    <tripinfo id="veh154" depart="110.00" departLane="-1015948619_0" departPos="13.07" departSpeed="0.00" departDelay="0.66" arrival="189.00" arrivalLane="-43544001#0_1" arrivalPos="29.90" arrivalSpeed="10.73" duration="79.00" routeLength="945.59" waitingTime="0.00" waitingCount="0" stopTime="0.00" timeLoss="10.38" rerouteNo="0" devices="tripinfo_veh154" vType="passenger" speedFactor="1.07" vaporized=""/>
    <tripinfo id="veh19" depart="14.00" departLane="-647347140#2_1" departPos="5.68" departSpeed="0.00" departDelay="0.51" arrival="192.00" arrivalLane="-43544138#1_1" arrivalPos="28.79" arrivalSpeed="15.69" duration="178.00" routeLength="1245.06" waitingTime="66.00" waitingCount="1" stopTime="0.00" timeLoss="95.07" rerouteNo="0" devices="tripinfo_veh19" vType="passenger" speedFactor="1.13" vaporized=""/>
    <tripinfo id="veh115" depart="82.00" departLane="40236203#4_1" departPos="32.47" departSpeed="0.00" departDelay="0.35" arrival="192.00" arrivalLane="-40299739#0_1" arrivalPos="93.05" arrivalSpeed="16.03" duration="110.00" routeLength="1519.33" waitingTime="0.00" waitingCount="0" stopTime="0.00" timeLoss="17.55" rerouteNo="0" devices="tripinfo_veh115" vType="passenger" speedFactor="1.21" vaporized=""/>
    <tripinfo id="veh108" depart="77.00" departLane="-984505045_0" departPos="24.78" departSpeed="0.00" departDelay="0.32" arrival="193.00" arrivalLane="-40306149_1" arrivalPos="62.47" arrivalSpeed="12.91" duration="116.00" routeLength="1113.99" waitingTime="5.00" waitingCount="1" stopTime="0.00" timeLoss="27.95" rerouteNo="0" devices="tripinfo_veh108" vType="passenger" speedFactor="1.01" vaporized=""/>
    <tripinfo id="veh124" depart="89.00" departLane="48778518_1" departPos="2.96" departSpeed="0.00" departDelay="0.96" arrival="193.00" arrivalLane="-258551284#1_1" arrivalPos="135.26" arrivalSpeed="16.19" duration="104.00" routeLength="1356.28" waitingTime="0.00" waitingCount="0" stopTime="0.00" timeLoss="17.97" rerouteNo="0" devices="tripinfo_veh124" vType="passenger" speedFactor="1.18" vaporized=""/>
    <tripinfo id="veh76" depart="54.00" departLane="-996486454#1_1" departPos="42.16" departSpeed="0.00" departDelay="0.04" arrival="194.00" arrivalLane="43546064#2_1" arrivalPos="103.27" arrivalSpeed="12.59" duration="140.00" routeLength="1595.39" waitingTime="0.00" waitingCount="0" stopTime="0.00" timeLoss="20.62" rerouteNo="0" devices="tripinfo_veh76" vType="emergency" speedFactor="1.00" vaporized=""/>
    <tripinfo id="veh101" depart="72.00" departLane="40329447_1" departPos="6.91" departSpeed="0.00" departDelay="0.29" arrival="200.00" arrivalLane="-1136283380_1" arrivalPos="22.56" arrivalSpeed="9.12" duration="128.00" routeLength="1365.86" waitingTime="0.00" waitingCount="0" stopTime="0.00" timeLoss="23.19" rerouteNo="0" devices="tripinfo_veh101" vType="passenger" speedFactor="1.12" vaporized=""/>
    <tripinfo id="veh73" depart="52.00" departLane="-48778527_1" departPos="55.32" departSpeed="0.00" departDelay="0.17" arrival="204.00" arrivalLane="33909936#1_1" arrivalPos="134.25" arrivalSpeed="12.04" duration="152.00" routeLength="1579.37" waitingTime="0.00" waitingCount="0" stopTime="0.00" timeLoss="20.68" rerouteNo="0" devices="tripinfo_veh73" vType="passenger" speedFactor="0.91" vaporized=""/>
    <tripinfo id="veh143" depart="102.00" departLane="-1135772297_0" departPos="2.61" departSpeed="0.00" departDelay="0.47" arrival="204.00" arrivalLane="1136301811_1" arrivalPos="31.32" arrivalSpeed="6.29" duration="102.00" routeLength="965.00" waitingTime="0.00" waitingCount="0" stopTime="0.00" timeLoss="25.75" rerouteNo="0" devices="tripinfo_veh143" vType="motorcycle" speedFactor="1.08" vaporized=""/>
    <tripinfo id="truck33" depart="159.00" departLane="33913538#0_1" departPos="12.10" departSpeed="0.00" departDelay="0.00" arrival="206.00" arrivalLane="33913538#3_1" arrivalPos="4.38" arrivalSpeed="12.37" duration="47.00" routeLength="492.23" waitingTime="0.00" waitingCount="0" stopTime="0.00" timeLoss="8.27" rerouteNo="0" devices="tripinfo_truck33" vType="truck" speedFactor="0.92" vaporized=""/>
    <tripinfo id="veh182" depart="130.00" departLane="-48797773_1" departPos="0.65" departSpeed="0.00" departDelay="0.78" arrival="207.00" arrivalLane="40236203#3_1" arrivalPos="78.82" arrivalSpeed="14.67" duration="77.00" routeLength="705.91" waitingTime="0.00" waitingCount="0" stopTime="0.00" timeLoss="23.76" rerouteNo="0" devices="tripinfo_veh182" vType="passenger" speedFactor="1.06" vaporized=""/>
    <tripinfo id="veh78" depart="56.00" departLane="-43545645#1_1" departPos="32.97" departSpeed="0.00" departDelay="0.62" arrival="208.00" arrivalLane="-996486454#0_1" arrivalPos="64.31" arrivalSpeed="12.99" duration="152.00" routeLength="1652.55" waitingTime="0.00" waitingCount="0" stopTime="0.00" timeLoss="24.57" rerouteNo="0" devices="tripinfo_veh78" vType="delivery" speedFactor="0.98" vaporized=""/>
    <tripinfo id="veh230" depart="164.00" departLane="1250915723#1_1" departPos="31.38" departSpeed="0.00" departDelay="0.70" arrival="210.00" arrivalLane="-945793490#1_1" arrivalPos="16.18" arrivalSpeed="5.37" duration="46.00" routeLength="223.56" waitingTime="0.00" waitingCount="0" stopTime="0.00" timeLoss="5.92" rerouteNo="0" devices="tripinfo_veh230" vType="passenger" speedFactor="1.03" vaporized=""/>
    <tripinfo id="veh130" depart="93.00" departLane="-48736621#1_1" departPos="5.00" departSpeed="0.00" departDelay="0.70" arrival="214.00" arrivalLane="647689085_1" arrivalPos="124.55" arrivalSpeed="14.40" duration="121.00" routeLength="517.63" waitingTime="60.00" waitingCount="2" stopTime="0.00" timeLoss="86.36" rerouteNo="0" devices="tripinfo_veh130" vType="passenger" speedFactor="1.13" vaporized=""/>
    <tripinfo id="veh199" depart="142.00" departLane="383582513_0" departPos="2.43" departSpeed="0.00" departDelay="0.71" arrival="219.00" arrivalLane="-354259933#3_1" arrivalPos="60.32" arrivalSpeed="12.52" duration="77.00" routeLength="629.27" waitingTime="3.00" waitingCount="1" stopTime="0.00" timeLoss="20.27" rerouteNo="0" devices="tripinfo_veh199" vType="delivery" speedFactor="0.98" vaporized=""/>
    <tripinfo id="veh79" depart="57.00" departLane="-48736638#2_1" departPos="32.10" departSpeed="0.00" departDelay="0.91" arrival="221.00" arrivalLane="-48736611#0_1" arrivalPos="94.02" arrivalSpeed="8.72" duration="164.00" routeLength="1147.98" waitingTime="46.00" waitingCount="3" stopTime="0.00" timeLoss="76.57" rerouteNo="0" devices="tripinfo_veh79" vType="passenger" speedFactor="1.06" vaporized=""/>
    <tripinfo id="veh49" depart="35.00" departLane="-859729931_0" departPos="19.98" departSpeed="0.00" departDelay="0.21" arrival="222.00" arrivalLane="-383582513_0" arrivalPos="62.69" arrivalSpeed="5.13" duration="187.00" routeLength="1911.51" waitingTime="0.00" waitingCount="0" stopTime="0.00" timeLoss="26.83" rerouteNo="0" devices="tripinfo_veh49" vType="delivery" speedFactor="0.99" vaporized=""/>
    <tripinfo id="veh155" depart="112.00" departLane="-222605087#3_1" departPos="45.64" departSpeed="0.00" departDelay="1.95" arrival="223.00" arrivalLane="-647383048_1" arrivalPos="106.54" arrivalSpeed="14.45" duration="111.00" routeLength="1194.11" waitingTime="0.00" waitingCount="0" stopTime="0.00" timeLoss="19.28" rerouteNo="0" devices="tripinfo_veh155" vType="passenger" speedFactor="1.10" vaporized=""/>
    <tripinfo id="veh103" depart="74.00" departLane="-647640187_0" departPos="32.17" departSpeed="0.00" departDelay="0.87" arrival="225.00" arrivalLane="-48736632#0_1" arrivalPos="98.98" arrivalSpeed="13.85" duration="151.00" routeLength="1316.15" waitingTime="20.00" waitingCount="3" stopTime="0.00" timeLoss="49.45" rerouteNo="0" devices="tripinfo_veh103" vType="passenger" speedFactor="1.03" vaporized=""/>
    <tripinfo id="veh99" depart="71.00" departLane="40330575#3_1" departPos="21.41" departSpeed="0.00" departDelay="0.71" arrival="226.00" arrivalLane="-48778517#0_1" arrivalPos="43.62" arrivalSpeed="7.45" duration="155.00" routeLength="1421.17" waitingTime="23.00" waitingCount="1" stopTime="0.00" timeLoss="49.08" rerouteNo="0" devices="tripinfo_veh99" vType="passenger" speedFactor="1.03" vaporized=""/>
    <tripinfo id="veh244" depart="174.00" departLane="-48778504_1" departPos="32.79" departSpeed="0.00" departDelay="0.76" arrival="226.00" arrivalLane="48778497_1" arrivalPos="231.08" arrivalSpeed="12.53" duration="52.00" routeLength="515.72" waitingTime="0.00" waitingCount="0" stopTime="0.00" timeLoss="11.33" rerouteNo="0" devices="tripinfo_veh244" vType="passenger" speedFactor="0.97" vaporized=""/>
    <tripinfo id="veh30" depart="22.00" departLane="383582507_0" departPos="22.28" departSpeed="0.00" departDelay="0.70" arrival="229.00" arrivalLane="222609004#0_1" arrivalPos="29.46" arrivalSpeed="12.87" duration="207.00" routeLength="2264.01" waitingTime="5.00" waitingCount="1" stopTime="0.00" timeLoss="34.19" rerouteNo="0" devices="tripinfo_veh30" vType="passenger" speedFactor="1.07" vaporized=""/>
    <tripinfo id="veh145" depart="103.00" departLane="43544197#8_1" departPos="115.71" departSpeed="0.00" departDelay="0.05" arrival="230.00" arrivalLane="48778498#2_1" arrivalPos="98.03" arrivalSpeed="13.98" duration="127.00" routeLength="1468.72" waitingTime="0.00" waitingCount="0" stopTime="0.00" timeLoss="19.81" rerouteNo="0" devices="tripinfo_veh145" vType="passenger" speedFactor="1.03" vaporized=""/>
    <tripinfo id="veh201" depart="143.00" departLane="43544179#6_1" departPos="13.01" departSpeed="0.00" departDelay="0.29" arrival="233.00" arrivalLane="-43544588#0_1" arrivalPos="169.75" arrivalSpeed="17.16" duration="90.00" routeLength="1049.26" waitingTime="4.00" waitingCount="1" stopTime="0.00" timeLoss="28.26" rerouteNo="0" devices="tripinfo_veh201" vType="passenger" speedFactor="1.26" vaporized=""/>
    <tripinfo id="veh68" depart="49.00" departLane="-647998060#1_1" departPos="21.78" departSpeed="0.00" departDelay="0.72" arrival="234.00" arrivalLane="48788485#5_1" arrivalPos="101.99" arrivalSpeed="12.37" duration="185.00" routeLength="996.97" waitingTime="87.00" waitingCount="1" stopTime="0.00" timeLoss="105.15" rerouteNo="0" devices="tripinfo_veh68" vType="motorcycle" speedFactor="0.94" vaporized=""/>
    <tripinfo id="veh107" depart="76.00" departLane="273835686#0_1" departPos="43.06" departSpeed="0.00" departDelay="0.03" arrival="235.00" arrivalLane="40299739#1_1" arrivalPos="75.95" arrivalSpeed="11.89" duration="159.00" routeLength="1017.95" waitingTime="44.00" waitingCount="1" stopTime="0.00" timeLoss="82.47" rerouteNo="0" devices="tripinfo_veh107" vType="motorcycle" speedFactor="1.04" vaporized=""/>
    <tripinfo id="veh20" depart="15.00" departLane="40329447_1" departPos="9.24" departSpeed="0.00" departDelay="0.80" arrival="236.00" arrivalLane="1250915720#0_1" arrivalPos="2.68" arrivalSpeed="4.35" duration="221.00" routeLength="1783.36" waitingTime="16.00" waitingCount="1" stopTime="0.00" timeLoss="55.74" rerouteNo="0" devices="tripinfo_veh20" vType="passenger" speedFactor="0.89" vaporized=""/>
    <tripinfo id="veh135" depart="96.00" departLane="43547579#3_1" departPos="114.88" departSpeed="0.00" departDelay="0.15" arrival="236.00" arrivalLane="-40236220#0_1" arrivalPos="33.44" arrivalSpeed="13.05" duration="140.00" routeLength="1319.98" waitingTime="12.00" waitingCount="2" stopTime="0.00" timeLoss="41.09" rerouteNo="0" devices="tripinfo_veh135" vType="passenger" speedFactor="0.98" vaporized=""/>
    <personinfo id="ped6" depart="30.00" type="DEFAULT_PEDTYPE" speedFactor="1.11" duration="207.00" waitingTime="0.00" timeLoss="22.32" traveltime="207.00">
        <walk depart="30.00" departPos="0.00" arrival="237.00" arrivalPos="1.74" duration="207.00" routeLength="284.79" timeLoss="22.32" maxSpeed="1.54"/>
    </personinfo>
    <tripinfo id="veh37" depart="27.00" departLane="984521612#0_0" departPos="4.88" departSpeed="0.00" departDelay="0.73" arrival="240.00" arrivalLane="1364828571_0" arrivalPos="94.46" arrivalSpeed="4.49" duration="213.00" routeLength="1755.55" waitingTime="12.00" waitingCount="2" stopTime="0.00" timeLoss="39.36" rerouteNo="0" devices="tripinfo_veh37" vType="passenger" speedFactor="0.88" vaporized=""/>
    <tripinfo id="veh164" depart="117.00" departLane="48778508#0_1" departPos="7.89" departSpeed="0.00" departDelay="0.56" arrival="242.00" arrivalLane="-222605087#2_1" arrivalPos="14.86" arrivalSpeed="4.86" duration="125.00" routeLength="1172.12" waitingTime="0.00" waitingCount="0" stopTime="0.00" timeLoss="16.24" rerouteNo="0" devices="tripinfo_veh164" vType="emergency" speedFactor="1.00" vaporized=""/>
    <tripinfo id="veh114" depart="81.00" departLane="-40236228#1_1" departPos="29.42" departSpeed="0.00" departDelay="0.06" arrival="246.00" arrivalLane="48797767#0_1" arrivalPos="21.71" arrivalSpeed="9.90" duration="165.00" routeLength="1784.88" waitingTime="12.00" waitingCount="1" stopTime="0.00" timeLoss="40.89" rerouteNo="0" devices="tripinfo_veh114" vType="delivery" speedFactor="1.06" vaporized=""/>
    <tripinfo id="veh195" depart="139.00" departLane="43546789#3_1" departPos="51.83" departSpeed="0.00" departDelay="0.55" arrival="246.00" arrivalLane="-48778505#0_1" arrivalPos="221.68" arrivalSpeed="11.59" duration="107.00" routeLength="1019.01" waitingTime="0.00" waitingCount="0" stopTime="0.00" timeLoss="17.10" rerouteNo="0" devices="tripinfo_veh195" vType="passenger" speedFactor="0.85" vaporized=""/>
    <tripinfo id="veh7" depart="5.00" departLane="-996486454#1_1" departPos="46.20" departSpeed="0.00" departDelay="0.03" arrival="249.00" arrivalLane="354252039#0_1" arrivalPos="50.46" arrivalSpeed="15.21" duration="244.00" routeLength="2757.98" waitingTime="16.00" waitingCount="2" stopTime="0.00" timeLoss="64.28" rerouteNo="0" devices="tripinfo_veh7" vType="passenger" speedFactor="1.12" vaporized=""/>
    <tripinfo id="veh172" depart="123.00" departLane="-40299276#1_1" departPos="29.43" departSpeed="0.00" departDelay="0.88" arrival="251.00" arrivalLane="984508805_0" arrivalPos="34.81" arrivalSpeed="5.97" duration="128.00" routeLength="1404.94" waitingTime="3.00" waitingCount="1" stopTime="0.00" timeLoss="33.80" rerouteNo="0" devices="tripinfo_veh172" vType="passenger" speedFactor="1.17" vaporized=""/>
    <tripinfo id="veh286" depart="204.00" departLane="222605086_1" departPos="2.93" departSpeed="0.00" departDelay="0.94" arrival="253.00" arrivalLane="-945793490#5_1" arrivalPos="110.67" arrivalSpeed="4.91" duration="49.00" routeLength="231.91" waitingTime="0.00" waitingCount="0" stopTime="0.00" timeLoss="7.14" rerouteNo="0" devices="tripinfo_veh286" vType="passenger" speedFactor="1.00" vaporized=""/>
    <tripinfo id="veh125" depart="89.00" departLane="-48778521#0_1" departPos="59.08" departSpeed="0.00" departDelay="0.25" arrival="255.00" arrivalLane="-222605089#3_1" arrivalPos="340.13" arrivalSpeed="11.61" duration="166.00" routeLength="965.30" waitingTime="73.00" waitingCount="1" stopTime="0.00" timeLoss="91.45" rerouteNo="0" devices="tripinfo_veh125" vType="motorcycle" speedFactor="1.01" vaporized=""/>
    <tripinfo id="veh147" depart="105.00" departLane="-43544197#0_1" departPos="33.22" departSpeed="0.00" departDelay="0.63" arrival="255.00" arrivalLane="1378376381_2" arrivalPos="160.13" arrivalSpeed="12.67" duration="150.00" routeLength="1704.53" waitingTime="0.00" waitingCount="0" stopTime="0.00" timeLoss="19.94" rerouteNo="0" devices="tripinfo_veh147" vType="delivery" speedFactor="0.97" vaporized=""/>
    <tripinfo id="veh64" depart="46.00" departLane="859728208#0_0" departPos="23.55" departSpeed="0.00" departDelay="0.56" arrival="256.00" arrivalLane="-48797771#2_1" arrivalPos="26.22" arrivalSpeed="11.65" duration="210.00" routeLength="1330.85" waitingTime="78.00" waitingCount="3" stopTime="0.00" timeLoss="106.17" rerouteNo="0" devices="tripinfo_veh64" vType="passenger" speedFactor="1.08" vaporized=""/>
    <tripinfo id="veh272" depart="194.00" departLane="-222605084#2_1" departPos="0.93" departSpeed="0.00" departDelay="0.88" arrival="258.00" arrivalLane="48778496_1" arrivalPos="81.85" arrivalSpeed="9.19" duration="64.00" routeLength="516.62" waitingTime="0.00" waitingCount="0" stopTime="0.00" timeLoss="12.81" rerouteNo="0" devices="tripinfo_veh272" vType="passenger" speedFactor="1.16" vaporized=""/>
    <tripinfo id="veh152" depart="108.00" departLane="-143207982#3_1" departPos="7.02" departSpeed="0.00" departDelay="0.08" arrival="260.00" arrivalLane="48778446#2_1" arrivalPos="11.20" arrivalSpeed="13.41" duration="152.00" routeLength="1131.05" waitingTime="47.00" waitingCount="1" stopTime="0.00" timeLoss="81.00" rerouteNo="0" devices="tripinfo_veh152" vType="passenger" speedFactor="1.18" vaporized=""/>