<?xml version="1.0" encoding="UTF-8"?>

<!-- generated on 2025-06-12 11:27:00 by Eclipse SUMO sumo Version 1.22.0
<sumoConfiguration xmlns:xsi="http://www.w3.org/2001/XMLSchema-instance" xsi:noNamespaceSchemaLocation="http://sumo.dlr.de/xsd/sumoConfiguration.xsd">

    <input>
        <net-file value="E:/licenta/oras-mediu/2025-06-05-11-45-23/osm.net.xml"/>
        <route-files value="E:/licenta/oras-mediu/2025-06-05-11-45-23/full.rou.xml,E:/licenta/oras-mediu/2025-06-05-11-45-23/ ped.rou.xml,E:/licenta/oras-mediu/2025-06-05-11-45-23/ truck.rou.xml"/>
        <additional-files value="E:/licenta/oras-mediu/2025-06-05-11-45-23/osm.poly.xml,E:/licenta/oras-mediu/2025-06-05-11-45-23/ vtypes.xml"/>
    </input>

    <output>
        <summary-output value="E:/licenta/oras-mediu/2025-06-05-11-45-23/summary.xml"/>
        <tripinfo-output value="E:/licenta/oras-mediu/2025-06-05-11-45-23/tripinfo.xml"/>
    </output>

    <processing>
        <ignore-route-errors value="true"/>
        <tls.actuated.jam-threshold value="30"/>
    </processing>

    <routing>
        <device.rerouting.adaptation-steps value="18"/>
        <device.rerouting.adaptation-interval value="10"/>
    </routing>

    <report>
        <verbose value="true"/>
        <duration-log.statistics value="true"/>
        <no-step-log value="true"/>
    </report>

    <traci_server>
        <remote-port value="62679"/>
    </traci_server>

    <gui_only>
        <gui-settings-file value="E:/licenta/oras-mediu/2025-06-05-11-45-23/osm.view.xml"/>
    </gui_only>

</sumoConfiguration>
-->

<tripinfos xmlns:xsi="http://www.w3.org/2001/XMLSchema-instance" xsi:noNamespaceSchemaLocation="http://sumo.dlr.de/xsd/tripinfo_file.xsd">
    <tripinfo id="veh19" depart="12.00" departLane="-43544197#2_1" departPos="14.04" departSpeed="0.00" departDelay="0.22" arrival="74.00" arrivalLane="-43546935#3_1" arrivalPos="13.61" arrivalSpeed="9.85" duration="62.00" routeLength="662.88" waitingTime="0.00" waitingCount="0" stopTime="0.00" timeLoss="12.01" rerouteNo="0" devices="tripinfo_veh19" vType="passenger" speedFactor="1.01" vaporized=""/>
    <tripinfo id="veh25" depart="16.00" departLane="-1136283379#0_1" departPos="45.25" departSpeed="0.00" departDelay="0.50" arrival="78.00" arrivalLane="-40236220#1_1" arrivalPos="30.08" arrivalSpeed="14.54" duration="62.00" routeLength="570.21" waitingTime="0.00" waitingCount="0" stopTime="0.00" timeLoss="13.35" rerouteNo="0" devices="tripinfo_veh25" vType="passenger" speedFactor="1.12" vaporized=""/>
    <personinfo id="ped8" depart="40.00" type="DEFAULT_PEDTYPE" speedFactor="1.26" duration="53.00" waitingTime="0.00" timeLoss="5.75" traveltime="53.00">
        <walk depart="40.00" departPos="0.00" arrival="93.00" arrivalPos="26.31" duration="53.00" routeLength="82.63" timeLoss="5.75" maxSpeed="1.75"/>
    </personinfo>
    <tripinfo id="veh104" depart="65.00" departLane="530103975#0_1" departPos="28.48" departSpeed="0.00" departDelay="0.52" arrival="93.00" arrivalLane="-492965073#6_1" arrivalPos="1.92" arrivalSpeed="13.52" duration="28.00" routeLength="238.56" waitingTime="0.00" waitingCount="0" stopTime="0.00" timeLoss="9.71" rerouteNo="0" devices="tripinfo_veh104" vType="passenger" speedFactor="1.03" vaporized=""/>
    <tripinfo id="veh114" depart="71.00" departLane="1250915722#4_1" departPos="7.52" departSpeed="0.00" departDelay="0.32" arrival="95.00" arrivalLane="-1250915723#0_1" arrivalPos="19.10" arrivalSpeed="4.97" duration="24.00" routeLength="114.39" waitingTime="0.00" waitingCount="0" stopTime="0.00" timeLoss="3.46" rerouteNo="0" devices="tripinfo_veh114" vType="passenger" speedFactor="1.01" vaporized=""/>
    <tripinfo id="veh58" depart="36.00" departLane="-48736656#2_1" departPos="56.23" departSpeed="0.00" departDelay="0.04" arrival="97.00" arrivalLane="-383582854#0_0" arrivalPos="13.09" arrivalSpeed="3.85" duration="61.00" routeLength="468.58" waitingTime="0.00" waitingCount="0" stopTime="0.00" timeLoss="11.71" rerouteNo="0" devices="tripinfo_veh58" vType="passenger" speedFactor="0.91" vaporized=""/>
    <tripinfo id="veh13" depart="9.00" departLane="-43546115_1" departPos="152.55" departSpeed="0.00" departDelay="0.94" arrival="98.00" arrivalLane="-48778499#0_1" arrivalPos="44.27" arrivalSpeed="13.19" duration="89.00" routeLength="833.09" waitingTime="0.00" waitingCount="0" stopTime="0.00" timeLoss="20.94" rerouteNo="0" devices="tripinfo_veh13" vType="delivery" speedFactor="0.97" vaporized=""/>
    <tripinfo id="veh9" depart="6.00" departLane="67712683_1" departPos="22.73" departSpeed="0.00" departDelay="0.42" arrival="114.00" arrivalLane="-264868325_1" arrivalPos="96.14" arrivalSpeed="12.12" duration="108.00" routeLength="988.81" waitingTime="2.00" waitingCount="1" stopTime="0.00" timeLoss="24.04" rerouteNo="0" devices="tripinfo_veh9" vType="passenger" speedFactor="0.90" vaporized=""/>
    <tripinfo id="veh0" depart="0.00" departLane="48778481#9_1" departPos="274.20" departSpeed="0.00" departDelay="0.00" arrival="118.00" arrivalLane="-222605087#2_1" arrivalPos="14.86" arrivalSpeed="4.40" duration="118.00" routeLength="920.20" waitingTime="0.00" waitingCount="0" stopTime="0.00" timeLoss="24.12" rerouteNo="0" devices="tripinfo_veh0" vType="motorcycle" speedFactor="0.98" vaporized=""/>
    <tripinfo id="veh102" depart="64.00" departLane="-492965073#4_1" departPos="114.49" departSpeed="0.00" departDelay="0.76" arrival="120.00" arrivalLane="-48736638#1_1" arrivalPos="84.57" arrivalSpeed="13.71" duration="56.00" routeLength="406.19" waitingTime="0.00" waitingCount="0" stopTime="0.00" timeLoss="14.55" rerouteNo="0" devices="tripinfo_veh102" vType="passenger" speedFactor="1.02" vaporized=""/>
    <tripinfo id="veh50" depart="31.00" departLane="43573573#0_1" departPos="18.73" departSpeed="0.00" departDelay="0.00" arrival="122.00" arrivalLane="-43544179#6_1" arrivalPos="35.50" arrivalSpeed="13.64" duration="91.00" routeLength="1096.75" waitingTime="0.00" waitingCount="0" stopTime="0.00" timeLoss="11.86" rerouteNo="0" devices="tripinfo_veh50" vType="passenger" speedFactor="1.02" vaporized=""/>
    <tripinfo id="veh63" depart="40.00" departLane="40236203#2_1" departPos="4.90" departSpeed="0.00" departDelay="0.94" arrival="124.00" arrivalLane="48778503#0_1" arrivalPos="42.51" arrivalSpeed="14.11" duration="84.00" routeLength="1033.88" waitingTime="0.00" waitingCount="0" stopTime="0.00" timeLoss="10.65" rerouteNo="0" devices="tripinfo_veh63" vType="passenger" speedFactor="1.06" vaporized=""/>
    <tripinfo id="veh107" depart="67.00" departLane="-40306162#0_1" departPos="83.47" departSpeed="0.00" departDelay="0.66" arrival="126.00" arrivalLane="-48778476_1" arrivalPos="101.99" arrivalSpeed="14.32" duration="59.00" routeLength="596.14" waitingTime="0.00" waitingCount="0" stopTime="0.00" timeLoss="16.27" rerouteNo="0" devices="tripinfo_veh107" vType="passenger" speedFactor="1.12" vaporized=""/>
    <personinfo id="ped20" depart="100.00" type="DEFAULT_PEDTYPE" speedFactor="1.10" duration="29.00" waitingTime="0.00" timeLoss="2.80" traveltime="29.00">
        <walk depart="100.00" departPos="0.00" arrival="129.00" arrivalPos="40.17" duration="29.00" routeLength="40.17" timeLoss="2.80" maxSpeed="1.53"/>
    </personinfo>
    <tripinfo id="veh126" depart="79.00" departLane="92198452#3_1" departPos="53.72" departSpeed="0.00" departDelay="0.88" arrival="129.00" arrivalLane="-40330575#0_1" arrivalPos="31.85" arrivalSpeed="13.78" duration="50.00" routeLength="615.87" waitingTime="0.00" waitingCount="0" stopTime="0.00" timeLoss="7.15" rerouteNo="0" devices="tripinfo_veh126" vType="passenger" speedFactor="1.07" vaporized=""/>
    <tripinfo id="veh98" depart="61.00" departLane="-48736620#2_2" departPos="61.82" departSpeed="0.00" departDelay="0.24" arrival="130.00" arrivalLane="1364605473_0" arrivalPos="48.68" arrivalSpeed="5.27" duration="69.00" routeLength="673.46" waitingTime="0.00" waitingCount="0" stopTime="0.00" timeLoss="11.19" rerouteNo="0" devices="tripinfo_veh98" vType="passenger" speedFactor="0.99" vaporized=""/>
    <tripinfo id="veh85" depart="53.00" departLane="48778500#2_1" departPos="45.47" departSpeed="0.00" departDelay="0.30" arrival="134.00" arrivalLane="48778494#1_1" arrivalPos="15.92" arrivalSpeed="9.42" duration="81.00" routeLength="866.67" waitingTime="0.00" waitingCount="0" stopTime="0.00" timeLoss="18.14" rerouteNo="0" devices="tripinfo_veh85" vType="passenger" speedFactor="1.06" vaporized=""/>
    <tripinfo id="veh6" depart="4.00" departLane="264868325_1" departPos="0.66" departSpeed="0.00" departDelay="0.28" arrival="136.00" arrivalLane="250295380#0_1" arrivalPos="168.52" arrivalSpeed="12.20" duration="132.00" routeLength="1357.93" waitingTime="0.00" waitingCount="0" stopTime="0.00" timeLoss="21.16" rerouteNo="0" devices="tripinfo_veh6" vType="passenger" speedFactor="0.92" vaporized=""/>
    <tripinfo id="veh127" depart="79.00" departLane="-222605087#3_1" departPos="9.85" departSpeed="0.00" departDelay="0.26" arrival="136.00" arrivalLane="-40345956#3_1" arrivalPos="5.00" arrivalSpeed="7.41" duration="57.00" routeLength="260.79" waitingTime="2.00" waitingCount="1" stopTime="0.00" timeLoss="15.87" rerouteNo="0" devices="tripinfo_veh127" vType="passenger" speedFactor="0.92" vaporized=""/>
    <tripinfo id="veh36" depart="23.00" departLane="48797767#1_1" departPos="54.36" departSpeed="0.00" departDelay="0.68" arrival="137.00" arrivalLane="-48736621#0_1" arrivalPos="15.22" arrivalSpeed="14.08" duration="114.00" routeLength="1343.31" waitingTime="0.00" waitingCount="0" stopTime="0.00" timeLoss="17.93" rerouteNo="0" devices="tripinfo_veh36" vType="passenger" speedFactor="1.07" vaporized=""/>
    <tripinfo id="veh73" depart="46.00" departLane="40236203#3_1" departPos="44.96" departSpeed="0.00" departDelay="0.74" arrival="140.00" arrivalLane="48778457#1_1" arrivalPos="25.26" arrivalSpeed="13.02" duration="94.00" routeLength="903.24" waitingTime="5.00" waitingCount="1" stopTime="0.00" timeLoss="24.95" rerouteNo="0" devices="tripinfo_veh73" vType="passenger" speedFactor="0.98" vaporized=""/>
    <tripinfo id="veh23" depart="15.00" departLane="647262856_1" departPos="294.65" departSpeed="0.00" departDelay="0.74" arrival="143.00" arrivalLane="-48778498#2_1" arrivalPos="98.02" arrivalSpeed="12.37" duration="128.00" routeLength="1218.18" waitingTime="3.00" waitingCount="1" stopTime="0.00" timeLoss="26.06" rerouteNo="0" devices="tripinfo_veh23" vType="passenger" speedFactor="0.89" vaporized=""/>
    <tripinfo id="veh77" depart="48.00" departLane="43544588#0_1" departPos="119.61" departSpeed="0.00" departDelay="0.26" arrival="145.00" arrivalLane="-354252043_1" arrivalPos="59.78" arrivalSpeed="14.03" duration="97.00" routeLength="968.91" waitingTime="0.00" waitingCount="0" stopTime="0.00" timeLoss="24.85" rerouteNo="0" devices="tripinfo_veh77" vType="passenger" speedFactor="1.05" vaporized=""/>
    <tripinfo id="veh133" depart="83.00" departLane="-43546057_1" departPos="94.80" departSpeed="0.00" departDelay="0.54" arrival="150.00" arrivalLane="-43546105#2_1" arrivalPos="10.89" arrivalSpeed="12.00" duration="67.00" routeLength="649.54" waitingTime="0.00" waitingCount="0" stopTime="0.00" timeLoss="11.21" rerouteNo="0" devices="tripinfo_veh133" vType="passenger" speedFactor="0.88" vaporized=""/>
    <tripinfo id="veh39" depart="25.00" departLane="43546688#1_1" departPos="24.52" departSpeed="0.00" departDelay="0.82" arrival="152.00" arrivalLane="-40269009#1_1" arrivalPos="27.05" arrivalSpeed="12.59" duration="127.00" routeLength="1217.84" waitingTime="0.00" waitingCount="0" stopTime="0.00" timeLoss="25.90" rerouteNo="0" devices="tripinfo_veh39" vType="emergency" speedFactor="1.00" vaporized=""/>
    <tripinfo id="veh96" depart="60.00" departLane="-48778521#0_1" departPos="91.58" departSpeed="0.00" departDelay="0.48" arrival="152.00" arrivalLane="43544588#1_1" arrivalPos="38.30" arrivalSpeed="6.30" duration="92.00" routeLength="527.23" waitingTime="0.00" waitingCount="0" stopTime="0.00" timeLoss="11.33" rerouteNo="0" devices="tripinfo_veh96" vType="bicycle" speedFactor="1.18" vaporized=""/>
    <tripinfo id="veh33" depart="21.00" departLane="-492965073#5_1" departPos="104.67" departSpeed="0.00" departDelay="0.54" arrival="153.00" arrivalLane="43547296#0_1" arrivalPos="158.91" arrivalSpeed="14.50" duration="132.00" routeLength="1356.02" waitingTime="9.00" waitingCount="1" stopTime="0.00" timeLoss="39.20" rerouteNo="0" devices="tripinfo_veh33" vType="passenger" speedFactor="1.10" vaporized=""/>
    <tripinfo id="veh16" depart="10.00" departLane="1136283379#0_1" departPos="54.95" departSpeed="0.00" departDelay="0.08" arrival="168.00" arrivalLane="-1205541344_0" arrivalPos="82.96" arrivalSpeed="5.45" duration="158.00" routeLength="1678.25" waitingTime="1.00" waitingCount="1" stopTime="0.00" timeLoss="22.53" rerouteNo="0" devices="tripinfo_veh16" vType="passenger" speedFactor="1.02" vaporized=""/>
    <tripinfo id="veh31" depart="20.00" departLane="48778474#0_1" departPos="0.18" departSpeed="0.00" departDelay="0.78" arrival="172.00" arrivalLane="222605085#0_1" arrivalPos="77.21" arrivalSpeed="12.48" duration="152.00" routeLength="1487.81" waitingTime="12.00" waitingCount="2" stopTime="0.00" timeLoss="37.18" rerouteNo="0" devices="tripinfo_veh31" vType="passenger" speedFactor="0.94" vaporized=""/>
    <tripinfo id="veh41" depart="26.00" departLane="43544179#3_1" departPos="15.75" departSpeed="0.00" departDelay="0.58" arrival="173.00" arrivalLane="-43573478_1" arrivalPos="180.41" arrivalSpeed="12.58" duration="147.00" routeLength="1607.28" waitingTime="0.00" waitingCount="0" stopTime="0.00" timeLoss="21.34" rerouteNo="0" devices="tripinfo_veh41" vType="passenger" speedFactor="0.95" vaporized=""/>
    <tripinfo id="veh1" depart="1.00" departLane="92198453#0_1" departPos="11.66" departSpeed="0.00" departDelay="0.38" arrival="175.00" arrivalLane="48778457#0_1" arrivalPos="3.64" arrivalSpeed="9.21" duration="174.00" routeLength="1499.79" waitingTime="49.00" waitingCount="1" stopTime="0.00" timeLoss="71.36" rerouteNo="0" devices="tripinfo_veh1" vType="passenger" speedFactor="1.08" vaporized=""/>
    <tripinfo id="veh5" depart="4.00" departLane="48736620#6_1" departPos="2.94" departSpeed="0.00" departDelay="0.90" arrival="176.00" arrivalLane="1250915720#2_1" arrivalPos="2.90" arrivalSpeed="4.69" duration="172.00" routeLength="1723.38" waitingTime="14.00" waitingCount="1" stopTime="0.00" timeLoss="34.50" rerouteNo="0" devices="tripinfo_veh5" vType="delivery" speedFactor="1.05" vaporized=""/>
    <tripinfo id="veh118" depart="74.00" departLane="-48778522_1" departPos="12.19" departSpeed="0.00" departDelay="0.84" arrival="177.00" arrivalLane="-43546064#0_1" arrivalPos="168.39" arrivalSpeed="15.44" duration="103.00" routeLength="1232.81" waitingTime="0.00" waitingCount="0" stopTime="0.00" timeLoss="18.60" rerouteNo="0" devices="tripinfo_veh118" vType="passenger" speedFactor="1.11" vaporized=""/>
    <tripinfo id="veh172" depart="107.00" departLane="470207092#0_1" departPos="20.77" departSpeed="0.00" departDelay="0.36" arrival="177.00" arrivalLane="40236093_1" arrivalPos="79.24" arrivalSpeed="12.48" duration="70.00" routeLength="409.35" waitingTime="0.00" waitingCount="0" stopTime="0.00" timeLoss="14.60" rerouteNo="0" devices="tripinfo_veh172" vType="passenger" speedFactor="0.98" vaporized=""/>
    <tripinfo id="veh87" depart="54.00" departLane="222609002#2_1" departPos="3.99" departSpeed="0.00" departDelay="0.06" arrival="188.00" arrivalLane="40236144#0_1" arrivalPos="70.01" arrivalSpeed="14.57" duration="134.00" routeLength="1053.52" waitingTime="42.00" waitingCount="1" stopTime="0.00" timeLoss="60.72" rerouteNo="0" devices="tripinfo_veh87" vType="passenger" speedFactor="1.08" vaporized=""/>
    <tripinfo id="veh120" depart="75.00" departLane="176279225#1_1" departPos="3.11" departSpeed="0.00" departDelay="0.60" arrival="190.00" arrivalLane="-48736607#1_1" arrivalPos="193.73" arrivalSpeed="14.20" duration="115.00" routeLength="1147.49" waitingTime="10.00" waitingCount="1" stopTime="0.00" timeLoss="32.35" rerouteNo="0" devices="tripinfo_veh120" vType="delivery" speedFactor="1.06" vaporized=""/>
    <tripinfo id="veh196" depart="122.00" departLane="48736612#2_1" departPos="7.42" departSpeed="0.00" departDelay="0.48" arrival="191.00" arrivalLane="-48736619_1" arrivalPos="65.03" arrivalSpeed="12.11" duration="69.00" routeLength="640.08" waitingTime="0.00" waitingCount="0" stopTime="0.00" timeLoss="14.15" rerouteNo="0" devices="tripinfo_veh196" vType="passenger" speedFactor="0.89" vaporized=""/>
    <tripinfo id="veh3" depart="2.00" departLane="40236203#4_1" departPos="13.62" departSpeed="0.00" departDelay="0.14" arrival="194.00" arrivalLane="48736656#1_1" arrivalPos="41.98" arrivalSpeed="11.75" duration="192.00" routeLength="1994.47" waitingTime="11.00" waitingCount="1" stopTime="0.00" timeLoss="36.09" rerouteNo="0" devices="tripinfo_veh3" vType="passenger" speedFactor="0.94" vaporized=""/>
    <tripinfo id="veh103" depart="64.00" departLane="-143207979#0_1" departPos="17.03" departSpeed="0.00" departDelay="0.14" arrival="194.00" arrivalLane="40236259_1" arrivalPos="166.86" arrivalSpeed="12.23" duration="130.00" routeLength="1331.43" waitingTime="0.00" waitingCount="0" stopTime="0.00" timeLoss="18.22" rerouteNo="0" devices="tripinfo_veh103" vType="passenger" speedFactor="0.89" vaporized=""/>
    <tripinfo id="veh144" depart="90.00" departLane="48778505#2_1" departPos="46.33" departSpeed="0.00" departDelay="0.72" arrival="194.00" arrivalLane="43544001#5_1" arrivalPos="33.16" arrivalSpeed="14.19" duration="104.00" routeLength="1161.28" waitingTime="0.00" waitingCount="0" stopTime="0.00" timeLoss="18.40" rerouteNo="0" devices="tripinfo_veh144" vType="motorcycle" speedFactor="1.02" vaporized=""/>
    <tripinfo id="veh141" depart="88.00" departLane="48736610#3_1" departPos="18.08" departSpeed="0.00" departDelay="0.58" arrival="196.00" arrivalLane="40314583#6_1" arrivalPos="41.79" arrivalSpeed="11.66" duration="108.00" routeLength="785.74" waitingTime="26.00" waitingCount="1" stopTime="0.00" timeLoss="43.63" rerouteNo="0" devices="tripinfo_veh141" vType="passenger" speedFactor="0.90" vaporized=""/>
    <tripinfo id="veh80" depart="50.00" departLane="43547256#2_1" departPos="115.42" departSpeed="0.00" departDelay="0.40" arrival="197.00" arrivalLane="994065253_0" arrivalPos="79.67" arrivalSpeed="4.93" duration="147.00" routeLength="1461.03" waitingTime="0.00" waitingCount="0" stopTime="0.00" timeLoss="17.59" rerouteNo="0" devices="tripinfo_veh80" vType="passenger" speedFactor="0.91" vaporized=""/>
    <tripinfo id="veh101" depart="64.00" departLane="43573573#4_1" departPos="40.64" departSpeed="0.00" departDelay="1.38" arrival="203.00" arrivalLane="-48778495#0_1" arrivalPos="107.63" arrivalSpeed="8.08" duration="139.00" routeLength="1571.62" waitingTime="0.00" waitingCount="0" stopTime="0.00" timeLoss="19.01" rerouteNo="0" devices="tripinfo_veh101" vType="passenger" speedFactor="1.03" vaporized=""/>
    <tripinfo id="veh108" depart="67.00" departLane="-48778461#0_1" departPos="53.06" departSpeed="0.00" departDelay="0.04" arrival="204.00" arrivalLane="1135854210_1" arrivalPos="13.11" arrivalSpeed="5.90" duration="137.00" routeLength="587.35" waitingTime="78.00" waitingCount="2" stopTime="0.00" timeLoss="95.76" rerouteNo="0" devices="tripinfo_veh108" vType="motorcycle" speedFactor="1.10" vaporized=""/>
    <tripinfo id="veh51" depart="32.00" departLane="-43544184#4_1" departPos="6.87" departSpeed="0.00" departDelay="0.38" arrival="205.00" arrivalLane="222605084#3_1" arrivalPos="1.85" arrivalSpeed="5.29" duration="173.00" routeLength="1688.25" waitingTime="8.00" waitingCount="2" stopTime="0.00" timeLoss="32.33" rerouteNo="0" devices="tripinfo_veh51" vType="passenger" speedFactor="1.00" vaporized=""/>
    <tripinfo id="veh82" depart="51.00" departLane="-40314876_1" departPos="46.29" departSpeed="0.00" departDelay="0.16" arrival="208.00" arrivalLane="-945793486#0_0" arrivalPos="6.00" arrivalSpeed="5.20" duration="157.00" routeLength="1548.23" waitingTime="0.00" waitingCount="0" stopTime="0.00" timeLoss="41.81" rerouteNo="0" devices="tripinfo_veh82" vType="passenger" speedFactor="1.10" vaporized=""/>
    <tripinfo id="veh174" depart="108.00" departLane="-48736616#0_1" departPos="2.20" departSpeed="0.00" departDelay="0.12" arrival="210.00" arrivalLane="48736666#2_1" arrivalPos="56.15" arrivalSpeed="13.51" duration="102.00" routeLength="1173.05" waitingTime="0.00" waitingCount="0" stopTime="0.00" timeLoss="15.96" rerouteNo="0" devices="tripinfo_veh174" vType="passenger" speedFactor="1.04" vaporized=""/>
    <tripinfo id="veh84" depart="53.00" departLane="-1136289989_1" departPos="8.77" departSpeed="0.00" departDelay="0.92" arrival="211.00" arrivalLane="-40345956#3_1" arrivalPos="5.00" arrivalSpeed="8.11" duration="158.00" routeLength="1824.84" waitingTime="0.00" waitingCount="0" stopTime="0.00" timeLoss="17.87" rerouteNo="0" devices="tripinfo_veh84" vType="delivery" speedFactor="0.98" vaporized=""/>
    <tripinfo id="veh115" depart="72.00" departLane="-671642324_1" departPos="3.20" departSpeed="0.00" departDelay="0.70" arrival="212.00" arrivalLane="-383582508#0_0" arrivalPos="10.60" arrivalSpeed="5.31" duration="140.00" routeLength="1024.81" waitingTime="28.00" waitingCount="2" stopTime="0.00" timeLoss="56.37" rerouteNo="0" devices="tripinfo_veh115" vType="emergency" speedFactor="1.00" vaporized=""/>
    <tripinfo id="veh142" depart="89.00" departLane="143207979#7_1" departPos="65.70" departSpeed="0.00" departDelay="0.96" arrival="215.00" arrivalLane="43573547#6_1" arrivalPos="56.24" arrivalSpeed="14.42" duration="126.00" routeLength="1332.00" waitingTime="1.00" waitingCount="1" stopTime="0.00" timeLoss="32.82" rerouteNo="0" devices="tripinfo_veh142" vType="passenger" speedFactor="1.06" vaporized=""/>
    <tripinfo id="veh121" depart="76.00" departLane="43546648#5_1" departPos="15.19" departSpeed="0.00" departDelay="0.98" arrival="220.00" arrivalLane="48736641_1" arrivalPos="16.88" arrivalSpeed="9.68" duration="144.00" routeLength="851.72" waitingTime="70.00" waitingCount="1" stopTime="0.00" timeLoss="91.05" rerouteNo="0" devices="tripinfo_veh121" vType="passenger" speedFactor="1.21" vaporized=""/>
    <tripinfo id="veh44" depart="28.00" departLane="48778517#0_1" departPos="18.80" departSpeed="0.00" departDelay="0.72" arrival="223.00" arrivalLane="48778441#2_1" arrivalPos="20.46" arrivalSpeed="15.43" duration="195.00" routeLength="2332.79" waitingTime="1.00" waitingCount="1" stopTime="0.00" timeLoss="42.45" rerouteNo="0" devices="tripinfo_veh44" vType="passenger" speedFactor="1.17" vaporized=""/>
    <tripinfo id="veh164" depart="102.00" departLane="E15_1" departPos="9.15" departSpeed="0.00" departDelay="0.32" arrival="223.00" arrivalLane="48778517#1_1" arrivalPos="40.09" arrivalSpeed="5.69" duration="121.00" routeLength="933.54" waitingTime="3.00" waitingCount="1" stopTime="0.00" timeLoss="23.03" rerouteNo="0" devices="tripinfo_veh164" vType="passenger" speedFactor="0.83" vaporized=""/>
    <tripinfo id="veh43" depart="27.00" departLane="289113778#1_1" departPos="266.44" departSpeed="0.00" departDelay="0.34" arrival="224.00" arrivalLane="-40236144#0_1" arrivalPos="70.18" arrivalSpeed="14.50" duration="197.00" routeLength="2310.11" waitingTime="0.00" waitingCount="0" stopTime="0.00" timeLoss="34.93" rerouteNo="0" devices="tripinfo_veh43" vType="passenger" speedFactor="1.06" vaporized=""/>
    <tripinfo id="veh20" depart="13.00" departLane="43546105#2_1" departPos="10.50" departSpeed="0.00" departDelay="0.60" arrival="226.00" arrivalLane="251916699#0_1" arrivalPos="41.21" arrivalSpeed="11.88" duration="213.00" routeLength="2046.16" waitingTime="0.00" waitingCount="0" stopTime="0.00" timeLoss="27.57" rerouteNo="0" devices="tripinfo_veh20" vType="passenger" speedFactor="0.87" vaporized=""/>
    <tripinfo id="veh105" depart="66.00" departLane="40265777#1_1" departPos="64.28" departSpeed="0.00" departDelay="0.90" arrival="227.00" arrivalLane="48778464#2_1" arrivalPos="24.43" arrivalSpeed="13.81" duration="161.00" routeLength="1252.98" waitingTime="47.00" waitingCount="2" stopTime="0.00" timeLoss="67.83" rerouteNo="0" devices="tripinfo_veh105" vType="passenger" speedFactor="1.00" vaporized=""/>
    <tripinfo id="veh157" depart="98.00" departLane="48778474#0_1" departPos="1.92" departSpeed="0.00" departDelay="0.66" arrival="228.00" arrivalLane="48778481#9_2" arrivalPos="307.74" arrivalSpeed="14.58" duration="130.00" routeLength="1449.23" waitingTime="0.00" waitingCount="0" stopTime="0.00" timeLoss="21.13" rerouteNo="0" devices="tripinfo_veh157" vType="passenger" speedFactor="1.07" vaporized=""/>
    <tripinfo id="veh109" depart="68.00" departLane="223942064#1_0" departPos="0.14" departSpeed="0.00" departDelay="0.42" arrival="232.00" arrivalLane="48797767#1_1" arrivalPos="62.09" arrivalSpeed="13.37" duration="164.00" routeLength="1942.44" waitingTime="2.00" waitingCount="1" stopTime="0.00" timeLoss="24.45" rerouteNo="0" devices="tripinfo_veh109" vType="passenger" speedFactor="1.03" vaporized=""/>
    <tripinfo id="veh97" depart="61.00" departLane="48778481#4_2" departPos="77.93" departSpeed="0.00" departDelay="0.86" arrival="233.00" arrivalLane="43546688#1_1" arrivalPos="71.52" arrivalSpeed="14.43" duration="172.00" routeLength="1760.32" waitingTime="29.00" waitingCount="1" stopTime="0.00" timeLoss="56.03" rerouteNo="0" devices="tripinfo_veh97" vType="passenger" speedFactor="1.13" vaporized=""/>
    <tripinfo id="veh245" depart="152.00" departLane="-40236259_1" departPos="66.88" departSpeed="0.00" departDelay="0.10" arrival="233.00" arrivalLane="43546105#3_1" arrivalPos="36.33" arrivalSpeed="15.99" duration="81.00" routeLength="962.45" waitingTime="0.00" waitingCount="0" stopTime="0.00" timeLoss="19.21" rerouteNo="0" devices="tripinfo_veh245" vType="passenger" speedFactor="1.16" vaporized=""/>
    <tripinfo id="veh28" depart="18.00" departLane="-48778508#1_1" departPos="91.35" departSpeed="0.00" departDelay="0.64" arrival="235.00" arrivalLane="-48778441#0_1" arrivalPos="36.99" arrivalSpeed="13.31" duration="217.00" routeLength="2019.26" waitingTime="28.00" waitingCount="1" stopTime="0.00" timeLoss="61.02" rerouteNo="0" devices="tripinfo_veh28" vType="passenger" speedFactor="0.97" vaporized=""/>
    <tripinfo id="veh181" depart="113.00" departLane="-40345930_1" departPos="0.80" departSpeed="0.00" departDelay="0.78" arrival="235.00" arrivalLane="1158942155_1" arrivalPos="54.59" arrivalSpeed="5.46" duration="122.00" routeLength="662.13" waitingTime="0.00" waitingCount="0" stopTime="0.00" timeLoss="10.22" rerouteNo="0" devices="tripinfo_veh181" vType="bicycle" speedFactor="1.07" vaporized=""/>
    <tripinfo id="veh212" depart="132.00" departLane="E14_2" departPos="25.22" departSpeed="0.00" departDelay="0.56" arrival="235.00" arrivalLane="-383582506_0" arrivalPos="44.83" arrivalSpeed="4.52" duration="103.00" routeLength="931.11" waitingTime="3.00" waitingCount="1" stopTime="0.00" timeLoss="26.05" rerouteNo="0" devices="tripinfo_veh212" vType="passenger" speedFactor="1.01" vaporized=""/>
    <tripinfo id="veh111" depart="69.00" departLane="40236232#0_1" departPos="27.07" departSpeed="0.00" departDelay="0.18" arrival="237.00" arrivalLane="-40330571#3_1" arrivalPos="199.92" arrivalSpeed="10.46" duration="168.00" routeLength="1149.96" waitingTime="33.00" waitingCount="3" stopTime="0.00" timeLoss="64.32" rerouteNo="0" devices="tripinfo_veh111" vType="motorcycle" speedFactor="0.84" vaporized=""/>
    <tripinfo id="veh52" depart="33.00" departLane="256555440#0_1" departPos="12.45" departSpeed="0.00" departDelay="0.76" arrival="238.00" arrivalLane="-43544179#9_1" arrivalPos="251.14" arrivalSpeed="14.82" duration="205.00" routeLength="2553.76" waitingTime="0.00" waitingCount="0" stopTime="0.00" timeLoss="34.65" rerouteNo="0" devices="tripinfo_veh52" vType="passenger" speedFactor="1.12" vaporized=""/>
    <tripinfo id="veh70" depart="44.00" departLane="43546379_1" departPos="60.84" departSpeed="0.00" departDelay="0.60" arrival="238.00" arrivalLane="-859738688_0" arrivalPos="223.29" arrivalSpeed="5.19" duration="194.00" routeLength="1916.53" waitingTime="0.00" waitingCount="0" stopTime="0.00" timeLoss="29.25" rerouteNo="0" devices="tripinfo_veh70" vType="passenger" speedFactor="1.02" vaporized=""/>
    <tripinfo id="veh188" depart="117.00" departLane="-40330592_1" departPos="9.10" departSpeed="0.00" departDelay="0.44" arrival="238.00" arrivalLane="-383582508#0_0" arrivalPos="10.60" arrivalSpeed="5.62" duration="121.00" routeLength="851.31" waitingTime="36.00" waitingCount="1" stopTime="0.00" timeLoss="55.88" rerouteNo="0" devices="tripinfo_veh188" vType="passenger" speedFactor="1.11" vaporized=""/>
    <personinfo id="ped11" depart="55.00" type="DEFAULT_PEDTYPE" speedFactor="1.03" duration="186.00" waitingTime="0.00" timeLoss="17.55" traveltime="186.00">
        <walk depart="55.00" departPos="0.00" arrival="241.00" arrivalPos="23.79" duration="186.00" routeLength="241.52" timeLoss="17.55" maxSpeed="1.43"/>
    </personinfo>
    <tripinfo id="veh89" depart="56.00" departLane="-383582499#3_1" departPos="66.10" departSpeed="0.00" departDelay="0.82" arrival="242.00" arrivalLane="48797773_1" arrivalPos="23.80" arrivalSpeed="13.33" duration="186.00" routeLength="2246.99" waitingTime="0.00" waitingCount="0" stopTime="0.00" timeLoss="17.66" rerouteNo="0" devices="tripinfo_veh89" vType="passenger" speedFactor="0.98" vaporized=""/>
    <tripinfo id="veh119" depart="74.00" departLane="578560104#5_1" departPos="25.42" departSpeed="0.00" departDelay="0.22" arrival="242.00" arrivalLane="48778521#0_1" arrivalPos="84.11" arrivalSpeed="7.87" duration="168.00" routeLength="1833.48" waitingTime="1.00" waitingCount="1" stopTime="0.00" timeLoss="28.11" rerouteNo="0" devices="tripinfo_veh119" vType="delivery" speedFactor="1.01" vaporized=""/>