<?xml version="1.0" encoding="UTF-8"?>

<!-- generated on 2025-06-12 11:41:40 by Eclipse SUMO sumo Version 1.22.0
<sumoConfiguration xmlns:xsi="http://www.w3.org/2001/XMLSchema-instance" xsi:noNamespaceSchemaLocation="http://sumo.dlr.de/xsd/sumoConfiguration.xsd">

    <input>
        <net-file value="E:/licenta/oras-mediu/2025-06-05-11-45-23/osm.net.xml"/>
        <route-files value="E:/licenta/oras-mediu/2025-06-05-11-45-23/full.rou.xml,E:/licenta/oras-mediu/2025-06-05-11-45-23/ ped.rou.xml,E:/licenta/oras-mediu/2025-06-05-11-45-23/ truck.rou.xml"/>
        <additional-files value="E:/licenta/oras-mediu/2025-06-05-11-45-23/osm.poly.xml,E:/licenta/oras-mediu/2025-06-05-11-45-23/ vtypes.xml"/>
    </input>

    <output>
        <summary-output value="E:/licenta/oras-mediu/2025-06-05-11-45-23/summary.xml"/>
        <tripinfo-output value="E:/licenta/oras-mediu/2025-06-05-11-45-23/tripinfo.xml"/>
    </output>

    <processing>
        <ignore-route-errors value="true"/>
        <tls.actuated.jam-threshold value="30"/>
    </processing>

    <routing>
        <device.rerouting.adaptation-steps value="18"/>
        <device.rerouting.adaptation-interval value="10"/>
    </routing>

    <report>
        <verbose value="true"/>
        <duration-log.statistics value="true"/>
        <no-step-log value="true"/>
    </report>

    <traci_server>
        <remote-port value="63165"/>
    </traci_server>

    <gui_only>
        <gui-settings-file value="E:/licenta/oras-mediu/2025-06-05-11-45-23/osm.view.xml"/>
    </gui_only>

</sumoConfiguration>
-->

<tripinfos xmlns:xsi="http://www.w3.org/2001/XMLSchema-instance" xsi:noNamespaceSchemaLocation="http://sumo.dlr.de/xsd/tripinfo_file.xsd">
    <tripinfo id="veh36" depart="26.00" departLane="-647226815#1_1" departPos="5.30" departSpeed="0.00" departDelay="0.08" arrival="56.00" arrivalLane="43544001#8_1" arrivalPos="45.27" arrivalSpeed="13.19" duration="30.00" routeLength="272.53" waitingTime="0.00" waitingCount="0" stopTime="0.00" timeLoss="7.45" rerouteNo="0" devices="tripinfo_veh36" vType="passenger" speedFactor="0.95" vaporized=""/>
    <tripinfo id="veh25" depart="18.00" departLane="-43544001#9_1" departPos="11.66" departSpeed="0.00" departDelay="0.00" arrival="77.00" arrivalLane="43544001#12_1" arrivalPos="78.57" arrivalSpeed="13.63" duration="59.00" routeLength="635.68" waitingTime="0.00" waitingCount="0" stopTime="0.00" timeLoss="11.02" rerouteNo="0" devices="tripinfo_veh25" vType="motorcycle" speedFactor="1.02" vaporized=""/>
    <tripinfo id="veh21" depart="16.00" departLane="43547256#1_1" departPos="46.85" departSpeed="0.00" departDelay="0.88" arrival="100.00" arrivalLane="-43546105#1_1" arrivalPos="277.53" arrivalSpeed="15.25" duration="84.00" routeLength="1084.38" waitingTime="0.00" waitingCount="0" stopTime="0.00" timeLoss="15.12" rerouteNo="0" devices="tripinfo_veh21" vType="passenger" speedFactor="1.15" vaporized=""/>
    <tripinfo id="veh7" depart="6.00" departLane="-40306162#0_1" departPos="51.95" departSpeed="0.00" departDelay="0.96" arrival="108.00" arrivalLane="273835688_1" arrivalPos="176.77" arrivalSpeed="14.84" duration="102.00" routeLength="1111.72" waitingTime="0.00" waitingCount="0" stopTime="0.00" timeLoss="26.71" rerouteNo="0" devices="tripinfo_veh7" vType="passenger" speedFactor="1.12" vaporized=""/>
    <tripinfo id="veh61" depart="44.00" departLane="48778517#0_1" departPos="2.12" departSpeed="0.00" departDelay="0.08" arrival="120.00" arrivalLane="48778431#6_1" arrivalPos="46.21" arrivalSpeed="14.69" duration="76.00" routeLength="871.77" waitingTime="0.00" waitingCount="0" stopTime="0.00" timeLoss="14.31" rerouteNo="0" devices="tripinfo_veh61" vType="passenger" speedFactor="1.12" vaporized=""/>
    <tripinfo id="veh40" depart="29.00" departLane="-48778525#1_1" departPos="1.54" departSpeed="0.00" departDelay="0.20" arrival="121.00" arrivalLane="43546053#1_1" arrivalPos="96.03" arrivalSpeed="14.11" duration="92.00" routeLength="966.91" waitingTime="0.00" waitingCount="0" stopTime="0.00" timeLoss="20.45" rerouteNo="0" devices="tripinfo_veh40" vType="passenger" speedFactor="1.05" vaporized=""/>
    <tripinfo id="veh52" depart="38.00" departLane="-40236203#3_1" departPos="33.91" departSpeed="0.00" departDelay="0.56" arrival="124.00" arrivalLane="-40236144#0_1" arrivalPos="70.18" arrivalSpeed="12.72" duration="86.00" routeLength="774.60" waitingTime="0.00" waitingCount="0" stopTime="0.00" timeLoss="13.48" rerouteNo="0" devices="tripinfo_veh52" vType="delivery" speedFactor="0.99" vaporized=""/>
    <tripinfo id="veh81" depart="59.00" departLane="-994065254_0" departPos="9.86" departSpeed="0.00" departDelay="0.68" arrival="128.00" arrivalLane="671642318#2_1" arrivalPos="31.59" arrivalSpeed="12.71" duration="69.00" routeLength="714.38" waitingTime="0.00" waitingCount="0" stopTime="0.00" timeLoss="9.69" rerouteNo="0" devices="tripinfo_veh81" vType="delivery" speedFactor="0.98" vaporized=""/>
    <tripinfo id="veh24" depart="18.00" departLane="401741889#1_1" departPos="70.97" departSpeed="0.00" departDelay="0.72" arrival="130.00" arrivalLane="48736641_1" arrivalPos="16.88" arrivalSpeed="11.35" duration="112.00" routeLength="939.71" waitingTime="21.00" waitingCount="1" stopTime="0.00" timeLoss="38.84" rerouteNo="0" devices="tripinfo_veh24" vType="passenger" speedFactor="0.97" vaporized=""/>
    <tripinfo id="veh33" depart="24.00" departLane="-33909936#1_1" departPos="60.63" departSpeed="0.00" departDelay="0.24" arrival="130.00" arrivalLane="258551283#1_1" arrivalPos="55.98" arrivalSpeed="13.49" duration="106.00" routeLength="1172.02" waitingTime="0.00" waitingCount="0" stopTime="0.00" timeLoss="19.24" rerouteNo="0" devices="tripinfo_veh33" vType="passenger" speedFactor="1.04" vaporized=""/>
    <tripinfo id="veh13" depart="10.00" departLane="578560104#6_1" departPos="55.12" departSpeed="0.00" departDelay="0.64" arrival="144.00" arrivalLane="48778486_1" arrivalPos="28.07" arrivalSpeed="13.73" duration="134.00" routeLength="706.79" waitingTime="55.00" waitingCount="1" stopTime="0.00" timeLoss="79.19" rerouteNo="0" devices="tripinfo_veh13" vType="passenger" speedFactor="1.02" vaporized=""/>
    <tripinfo id="veh39" depart="29.00" departLane="-256555440#1_1" departPos="33.59" departSpeed="0.00" departDelay="0.92" arrival="144.00" arrivalLane="-1136283380_1" arrivalPos="22.56" arrivalSpeed="9.19" duration="115.00" routeLength="1133.58" waitingTime="0.00" waitingCount="0" stopTime="0.00" timeLoss="28.21" rerouteNo="0" devices="tripinfo_veh39" vType="passenger" speedFactor="1.17" vaporized=""/>
    <personinfo id="ped15" depart="75.00" type="DEFAULT_PEDTYPE" speedFactor="1.08" duration="72.00" waitingTime="0.00" timeLoss="8.47" traveltime="72.00">
        <walk depart="75.00" departPos="0.00" arrival="147.00" arrivalPos="95.67" duration="72.00" routeLength="95.67" timeLoss="8.47" maxSpeed="1.51"/>
    </personinfo>
    <tripinfo id="veh49" depart="36.00" departLane="43573478_1" departPos="34.37" departSpeed="0.00" departDelay="0.72" arrival="149.00" arrivalLane="258551321_1" arrivalPos="124.63" arrivalSpeed="13.23" duration="113.00" routeLength="1236.45" waitingTime="0.00" waitingCount="0" stopTime="0.00" timeLoss="19.26" rerouteNo="0" devices="tripinfo_veh49" vType="passenger" speedFactor="1.00" vaporized=""/>
    <personinfo id="ped18" depart="90.00" type="DEFAULT_PEDTYPE" speedFactor="0.95" duration="61.00" waitingTime="0.00" timeLoss="5.80" traveltime="61.00">
        <walk depart="90.00" departPos="0.00" arrival="151.00" arrivalPos="1.82" duration="61.00" routeLength="72.78" timeLoss="5.80" maxSpeed="1.32"/>
    </personinfo>
    <tripinfo id="veh116" depart="84.00" departLane="-671642313_1" departPos="4.66" departSpeed="0.00" departDelay="0.48" arrival="155.00" arrivalLane="-1205541344_0" arrivalPos="82.96" arrivalSpeed="5.38" duration="71.00" routeLength="781.62" waitingTime="0.00" waitingCount="0" stopTime="0.00" timeLoss="7.73" rerouteNo="0" devices="tripinfo_veh116" vType="delivery" speedFactor="1.06" vaporized=""/>
    <tripinfo id="veh1" depart="1.00" departLane="48736620#6_1" departPos="0.18" departSpeed="0.00" departDelay="0.28" arrival="157.00" arrivalLane="48736617#0_1" arrivalPos="20.66" arrivalSpeed="12.71" duration="156.00" routeLength="1630.09" waitingTime="18.00" waitingCount="1" stopTime="0.00" timeLoss="43.53" rerouteNo="0" devices="tripinfo_veh1" vType="passenger" speedFactor="1.08" vaporized=""/>
    <tripinfo id="veh168" depart="121.00" departLane="273836978#0_1" departPos="9.47" departSpeed="0.00" departDelay="0.04" arrival="164.00" arrivalLane="-945793485#0_1" arrivalPos="25.01" arrivalSpeed="12.90" duration="43.00" routeLength="297.86" waitingTime="0.00" waitingCount="0" stopTime="0.00" timeLoss="12.03" rerouteNo="0" devices="tripinfo_veh168" vType="motorcycle" speedFactor="1.00" vaporized=""/>
    <tripinfo id="veh96" depart="70.00" departLane="-43544001#2_1" departPos="25.06" departSpeed="0.00" departDelay="0.88" arrival="166.00" arrivalLane="43544138#4_1" arrivalPos="45.15" arrivalSpeed="12.04" duration="96.00" routeLength="994.98" waitingTime="1.00" waitingCount="1" stopTime="0.00" timeLoss="19.74" rerouteNo="0" devices="tripinfo_veh96" vType="motorcycle" speedFactor="0.98" vaporized=""/>
    <tripinfo id="veh111" depart="80.00" departLane="-40236259_1" departPos="76.79" departSpeed="0.00" departDelay="0.08" arrival="166.00" arrivalLane="-48778498#2_1" arrivalPos="98.02" arrivalSpeed="12.70" duration="86.00" routeLength="940.03" waitingTime="0.00" waitingCount="0" stopTime="0.00" timeLoss="15.68" rerouteNo="0" devices="tripinfo_veh111" vType="emergency" speedFactor="1.00" vaporized=""/>
    <tripinfo id="veh137" depart="99.00" departLane="-43546688#0_1" departPos="9.64" departSpeed="0.00" departDelay="0.36" arrival="169.00" arrivalLane="-250295380#1_1" arrivalPos="92.88" arrivalSpeed="13.00" duration="70.00" routeLength="740.12" waitingTime="0.00" waitingCount="0" stopTime="0.00" timeLoss="13.16" rerouteNo="0" devices="tripinfo_veh137" vType="passenger" speedFactor="0.98" vaporized=""/>
    <tripinfo id="veh62" depart="45.00" departLane="-33909936#4_1" departPos="8.67" departSpeed="0.00" departDelay="0.36" arrival="173.00" arrivalLane="1250915720#6_1" arrivalPos="63.45" arrivalSpeed="4.68" duration="128.00" routeLength="1058.95" waitingTime="7.00" waitingCount="1" stopTime="0.00" timeLoss="24.11" rerouteNo="0" devices="tripinfo_veh62" vType="passenger" speedFactor="1.03" vaporized=""/>
    <tripinfo id="veh91" depart="66.00" departLane="258551284#0_1" departPos="100.32" departSpeed="0.00" departDelay="0.48" arrival="173.00" arrivalLane="-40345956#1_1" arrivalPos="78.52" arrivalSpeed="14.09" duration="107.00" routeLength="1054.47" waitingTime="7.00" waitingCount="1" stopTime="0.00" timeLoss="34.77" rerouteNo="0" devices="tripinfo_veh91" vType="passenger" speedFactor="1.10" vaporized=""/>
    <tripinfo id="veh126" depart="91.00" departLane="-859732803#1_0" departPos="3.03" departSpeed="0.00" departDelay="0.28" arrival="176.00" arrivalLane="40266619_1" arrivalPos="33.64" arrivalSpeed="12.93" duration="85.00" routeLength="639.53" waitingTime="19.00" waitingCount="2" stopTime="0.00" timeLoss="38.46" rerouteNo="0" devices="tripinfo_veh126" vType="passenger" speedFactor="1.18" vaporized=""/>
    <tripinfo id="veh55" depart="40.00" departLane="43546115_1" departPos="30.54" departSpeed="0.00" departDelay="0.40" arrival="183.00" arrivalLane="-996984235_0" arrivalPos="15.63" arrivalSpeed="4.34" duration="143.00" routeLength="1394.35" waitingTime="0.00" waitingCount="0" stopTime="0.00" timeLoss="24.31" rerouteNo="0" devices="tripinfo_veh55" vType="passenger" speedFactor="0.91" vaporized=""/>
    <tripinfo id="veh88" depart="64.00" departLane="383582499#3_1" departPos="70.12" departSpeed="0.00" departDelay="0.64" arrival="188.00" arrivalLane="-996489799#2_0" arrivalPos="59.30" arrivalSpeed="5.78" duration="124.00" routeLength="1605.59" waitingTime="0.00" waitingCount="0" stopTime="0.00" timeLoss="20.87" rerouteNo="0" devices="tripinfo_veh88" vType="passenger" speedFactor="1.25" vaporized=""/>
    <tripinfo id="veh105" depart="76.00" departLane="40330571#3_1" departPos="109.06" departSpeed="0.00" departDelay="0.40" arrival="188.00" arrivalLane="647383048_1" arrivalPos="105.03" arrivalSpeed="13.26" duration="112.00" routeLength="910.11" waitingTime="5.00" waitingCount="1" stopTime="0.00" timeLoss="50.01" rerouteNo="0" devices="tripinfo_veh105" vType="motorcycle" speedFactor="1.10" vaporized=""/>
    <tripinfo id="veh22" depart="16.00" departLane="-48778492_1" departPos="17.42" departSpeed="0.00" departDelay="0.16" arrival="193.00" arrivalLane="48778510#1_1" arrivalPos="102.69" arrivalSpeed="14.41" duration="177.00" routeLength="1982.30" waitingTime="11.00" waitingCount="1" stopTime="0.00" timeLoss="45.02" rerouteNo="0" devices="tripinfo_veh22" vType="passenger" speedFactor="1.12" vaporized=""/>
    <tripinfo id="veh65" depart="47.00" departLane="-289113877#0_1" departPos="137.10" departSpeed="0.00" departDelay="0.20" arrival="200.00" arrivalLane="1136289987_1" arrivalPos="68.55" arrivalSpeed="6.34" duration="153.00" routeLength="1567.45" waitingTime="0.00" waitingCount="0" stopTime="0.00" timeLoss="19.01" rerouteNo="0" devices="tripinfo_veh65" vType="passenger" speedFactor="0.90" vaporized=""/>
    <tripinfo id="veh205" depart="148.00" departLane="-222605087#5_1" departPos="19.49" departSpeed="0.00" departDelay="0.40" arrival="201.00" arrivalLane="-945793490#1_1" arrivalPos="16.18" arrivalSpeed="4.49" duration="53.00" routeLength="245.75" waitingTime="0.00" waitingCount="0" stopTime="0.00" timeLoss="7.82" rerouteNo="0" devices="tripinfo_veh205" vType="passenger" speedFactor="0.98" vaporized=""/>
    <personinfo id="ped30" depart="150.00" type="DEFAULT_PEDTYPE" speedFactor="0.91" duration="52.00" waitingTime="0.00" timeLoss="6.07" traveltime="52.00">
        <walk depart="150.00" departPos="0.00" arrival="202.00" arrivalPos="17.31" duration="52.00" routeLength="57.75" timeLoss="6.07" maxSpeed="1.26"/>
    </personinfo>
    <tripinfo id="veh108" depart="78.00" departLane="-48778514#2_1" departPos="84.04" departSpeed="0.00" departDelay="0.24" arrival="202.00" arrivalLane="43546053#2_1" arrivalPos="188.18" arrivalSpeed="13.99" duration="124.00" routeLength="1379.25" waitingTime="0.00" waitingCount="0" stopTime="0.00" timeLoss="23.49" rerouteNo="0" devices="tripinfo_veh108" vType="passenger" speedFactor="1.04" vaporized=""/>
    <tripinfo id="veh69" depart="50.00" departLane="945794107_1" departPos="21.78" departSpeed="0.00" departDelay="0.32" arrival="206.00" arrivalLane="-43544179#2_1" arrivalPos="111.50" arrivalSpeed="12.91" duration="156.00" routeLength="1759.12" waitingTime="0.00" waitingCount="0" stopTime="0.00" timeLoss="19.24" rerouteNo="0" devices="tripinfo_veh69" vType="passenger" speedFactor="0.98" vaporized=""/>
    <tripinfo id="veh80" depart="58.00" departLane="E9_1" departPos="36.53" departSpeed="0.00" departDelay="0.40" arrival="208.00" arrivalLane="43546115_1" arrivalPos="162.45" arrivalSpeed="12.84" duration="150.00" routeLength="1676.78" waitingTime="1.00" waitingCount="1" stopTime="0.00" timeLoss="25.83" rerouteNo="0" devices="tripinfo_veh80" vType="emergency" speedFactor="1.00" vaporized=""/>
    <tripinfo id="veh159" depart="115.00" departLane="-984508804_0" departPos="5.01" departSpeed="0.00" departDelay="0.52" arrival="209.00" arrivalLane="-353939570#8_1" arrivalPos="84.62" arrivalSpeed="15.03" duration="94.00" routeLength="1019.94" waitingTime="2.00" waitingCount="1" stopTime="0.00" timeLoss="25.13" rerouteNo="0" devices="tripinfo_veh159" vType="passenger" speedFactor="1.15" vaporized=""/>
    <personinfo id="ped26" depart="130.00" type="DEFAULT_PEDTYPE" speedFactor="1.02" duration="81.00" waitingTime="0.00" timeLoss="27.18" traveltime="81.00">
        <walk depart="130.00" departPos="0.00" arrival="211.00" arrivalPos="44.45" duration="81.00" routeLength="75.93" timeLoss="27.18" maxSpeed="1.41"/>
    </personinfo>
    <tripinfo id="veh70" depart="51.00" departLane="273836978#0_1" departPos="3.70" departSpeed="0.00" departDelay="0.60" arrival="211.00" arrivalLane="E9_2" arrivalPos="42.23" arrivalSpeed="6.76" duration="160.00" routeLength="1109.66" waitingTime="46.00" waitingCount="2" stopTime="0.00" timeLoss="75.01" rerouteNo="0" devices="tripinfo_veh70" vType="passenger" speedFactor="0.98" vaporized=""/>
    <tripinfo id="veh256" depart="185.00" departLane="-945793491#0_1" departPos="11.64" departSpeed="0.00" departDelay="0.68" arrival="215.00" arrivalLane="222605084#7_1" arrivalPos="41.65" arrivalSpeed="5.95" duration="30.00" routeLength="149.65" waitingTime="0.00" waitingCount="0" stopTime="0.00" timeLoss="4.67" rerouteNo="0" devices="tripinfo_veh256" vType="passenger" speedFactor="1.07" vaporized=""/>
    <personinfo id="ped23" depart="115.00" type="DEFAULT_PEDTYPE" speedFactor="1.11" duration="101.00" waitingTime="0.00" timeLoss="10.36" traveltime="101.00">
        <walk depart="115.00" departPos="0.00" arrival="216.00" arrivalPos="68.31" duration="101.00" routeLength="140.36" timeLoss="10.36" maxSpeed="1.55"/>
    </personinfo>
    <personinfo id="ped12" depart="60.00" type="DEFAULT_PEDTYPE" speedFactor="1.03" duration="162.00" waitingTime="0.00" timeLoss="17.10" traveltime="162.00">
        <walk depart="60.00" departPos="0.00" arrival="222.00" arrivalPos="21.66" duration="162.00" routeLength="208.26" timeLoss="17.10" maxSpeed="1.44"/>
    </personinfo>
    <tripinfo id="veh209" depart="151.00" departLane="48736613#3_1" departPos="24.36" departSpeed="0.00" departDelay="0.52" arrival="225.00" arrivalLane="-48736642_1" arrivalPos="106.82" arrivalSpeed="5.85" duration="74.00" routeLength="394.41" waitingTime="0.00" waitingCount="0" stopTime="0.00" timeLoss="6.48" rerouteNo="0" devices="tripinfo_veh209" vType="bicycle" speedFactor="1.06" vaporized=""/>
    <tripinfo id="veh217" depart="157.00" departLane="40330575#1_1" departPos="0.85" departSpeed="0.00" departDelay="0.76" arrival="226.00" arrivalLane="-1250915721#0_1" arrivalPos="14.93" arrivalSpeed="5.40" duration="69.00" routeLength="465.31" waitingTime="0.00" waitingCount="0" stopTime="0.00" timeLoss="12.25" rerouteNo="0" devices="tripinfo_veh217" vType="delivery" speedFactor="0.99" vaporized=""/>
    <tripinfo id="veh76" depart="55.00" departLane="-43546506#0_1" departPos="188.17" departSpeed="0.00" departDelay="0.28" arrival="231.00" arrivalLane="-250295383#4_1" arrivalPos="24.36" arrivalSpeed="10.98" duration="176.00" routeLength="1634.18" waitingTime="15.00" waitingCount="1" stopTime="0.00" timeLoss="36.91" rerouteNo="0" devices="tripinfo_veh76" vType="passenger" speedFactor="0.86" vaporized=""/>
    <personinfo id="ped28" depart="140.00" type="DEFAULT_PEDTYPE" speedFactor="0.94" duration="93.00" waitingTime="0.00" timeLoss="10.35" traveltime="93.00">
        <walk depart="140.00" departPos="0.00" arrival="233.00" arrivalPos="9.52" duration="93.00" routeLength="107.34" timeLoss="10.35" maxSpeed="1.30"/>
    </personinfo>
    <tripinfo id="veh30" depart="22.00" departLane="48736624#2_1" departPos="0.12" departSpeed="0.00" departDelay="0.40" arrival="233.00" arrivalLane="48736614#3_1" arrivalPos="117.48" arrivalSpeed="4.31" duration="211.00" routeLength="904.81" waitingTime="0.00" waitingCount="0" stopTime="0.00" timeLoss="15.85" rerouteNo="0" devices="tripinfo_veh30" vType="bicycle" speedFactor="0.83" vaporized=""/>
    <tripinfo id="veh110" depart="80.00" departLane="48736624#2_1" departPos="0.07" departSpeed="0.00" departDelay="0.80" arrival="234.00" arrivalLane="43546449#1_1" arrivalPos="41.66" arrivalSpeed="13.29" duration="154.00" routeLength="1495.24" waitingTime="17.00" waitingCount="1" stopTime="0.00" timeLoss="42.43" rerouteNo="0" devices="tripinfo_veh110" vType="passenger" speedFactor="1.01" vaporized=""/>
    <tripinfo id="veh35" depart="26.00" departLane="43573547#7_1" departPos="59.79" departSpeed="0.00" departDelay="0.80" arrival="235.00" arrivalLane="-48778446#2_1" arrivalPos="12.90" arrivalSpeed="14.21" duration="209.00" routeLength="1725.77" waitingTime="61.00" waitingCount="2" stopTime="0.00" timeLoss="92.37" rerouteNo="0" devices="tripinfo_veh35" vType="passenger" speedFactor="1.09" vaporized=""/>
    <tripinfo id="veh38" depart="28.00" departLane="251916699#0_1" departPos="27.33" departSpeed="0.00" departDelay="0.64" arrival="236.00" arrivalLane="1136301819_1" arrivalPos="13.81" arrivalSpeed="11.92" duration="208.00" routeLength="1332.48" waitingTime="87.00" waitingCount="2" stopTime="0.00" timeLoss="114.65" rerouteNo="0" devices="tripinfo_veh38" vType="passenger" speedFactor="1.06" vaporized=""/>
    <tripinfo id="veh128" depart="93.00" departLane="43573547#5_1" departPos="3.37" departSpeed="0.00" departDelay="0.84" arrival="237.00" arrivalLane="222608881#1_1" arrivalPos="39.96" arrivalSpeed="12.37" duration="144.00" routeLength="1494.28" waitingTime="0.00" waitingCount="0" stopTime="0.00" timeLoss="22.47" rerouteNo="0" devices="tripinfo_veh128" vType="passenger" speedFactor="0.91" vaporized=""/>
    <tripinfo id="veh162" depart="117.00" departLane="-143207979#1_1" departPos="4.84" departSpeed="0.00" departDelay="0.36" arrival="237.00" arrivalLane="1136289990_1" arrivalPos="14.40" arrivalSpeed="6.46" duration="120.00" routeLength="1083.10" waitingTime="0.00" waitingCount="0" stopTime="0.00" timeLoss="18.09" rerouteNo="0" devices="tripinfo_veh162" vType="passenger" speedFactor="0.83" vaporized=""/>
    <tripinfo id="veh15" depart="11.00" departLane="-859735387#1_0" departPos="4.84" departSpeed="0.00" departDelay="0.20" arrival="238.00" arrivalLane="-48797774_1" arrivalPos="99.59" arrivalSpeed="12.35" duration="227.00" routeLength="2228.97" waitingTime="0.00" waitingCount="0" stopTime="0.00" timeLoss="28.11" rerouteNo="0" devices="tripinfo_veh15" vType="passenger" speedFactor="0.89" vaporized=""/>
    <personinfo id="ped19" depart="95.00" type="DEFAULT_PEDTYPE" speedFactor="1.20" duration="144.00" waitingTime="0.00" timeLoss="13.54" traveltime="144.00">
        <walk depart="95.00" departPos="0.00" arrival="239.00" arrivalPos="20.87" duration="144.00" routeLength="217.78" timeLoss="13.54" maxSpeed="1.67"/>
    </personinfo>
    <tripinfo id="veh19" depart="14.00" departLane="48778480#5_1" departPos="47.28" departSpeed="0.00" departDelay="0.32" arrival="242.00" arrivalLane="-43573547#0_1" arrivalPos="148.63" arrivalSpeed="7.45" duration="228.00" routeLength="1816.79" waitingTime="67.00" waitingCount="2" stopTime="0.00" timeLoss="108.45" rerouteNo="0" devices="tripinfo_veh19" vType="passenger" speedFactor="1.13" vaporized=""/>
    <tripinfo id="veh156" depart="113.00" departLane="40265780#0_1" departPos="5.48" departSpeed="0.00" departDelay="0.68" arrival="243.00" arrivalLane="258551283#1_1" arrivalPos="55.98" arrivalSpeed="14.41" duration="130.00" routeLength="1604.69" waitingTime="0.00" waitingCount="0" stopTime="0.00" timeLoss="20.63" rerouteNo="0" devices="tripinfo_veh156" vType="passenger" speedFactor="1.10" vaporized=""/>
    <tripinfo id="veh20" depart="15.00" departLane="-92198451#2_1" departPos="70.75" departSpeed="0.00" departDelay="0.60" arrival="247.00" arrivalLane="-1136301818_1" arrivalPos="34.45" arrivalSpeed="11.66" duration="232.00" routeLength="2125.09" waitingTime="30.00" waitingCount="2" stopTime="0.00" timeLoss="59.24" rerouteNo="0" devices="tripinfo_veh20" vType="passenger" speedFactor="0.89" vaporized=""/>
    <tripinfo id="veh95" depart="69.00" departLane="48778479_1" departPos="153.48" departSpeed="0.00" departDelay="0.60" arrival="250.00" arrivalLane="1136289990_1" arrivalPos="14.40" arrivalSpeed="7.23" duration="181.00" routeLength="2014.29" waitingTime="0.00" waitingCount="0" stopTime="0.00" timeLoss="26.56" rerouteNo="0" devices="tripinfo_veh95" vType="passenger" speedFactor="0.99" vaporized=""/>
    <personinfo id="ped45" depart="225.00" type="DEFAULT_PEDTYPE" speedFactor="1.04" duration="28.00" waitingTime="0.00" timeLoss="4.21" traveltime="28.00">
        <walk depart="225.00" departPos="0.00" arrival="253.00" arrivalPos="19.55" duration="28.00" routeLength="34.50" timeLoss="4.21" maxSpeed="1.45"/>
    </personinfo>
    <tripinfo id="veh5" depart="4.00" departLane="-647226814#1_1" departPos="28.64" departSpeed="0.00" departDelay="0.40" arrival="254.00" arrivalLane="-647640187_0" arrivalPos="72.26" arrivalSpeed="5.65" duration="250.00" routeLength="2974.33" waitingTime="0.00" waitingCount="0" stopTime="0.00" timeLoss="31.75" rerouteNo="0" devices="tripinfo_veh5" vType="delivery" speedFactor="1.05" vaporized=""/>
    <tripinfo id="veh189" depart="137.00" departLane="859735387#0_0" departPos="40.23" departSpeed="0.00" departDelay="0.92" arrival="254.00" arrivalLane="-43544184#0_1" arrivalPos="27.32" arrivalSpeed="12.60" duration="117.00" routeLength="1192.34" waitingTime="0.00" waitingCount="0" stopTime="0.00" timeLoss="15.88" rerouteNo="0" devices="tripinfo_veh189" vType="delivery" speedFactor="0.99" vaporized=""/>
    <tripinfo id="veh58" depart="42.00" departLane="-647677163_1" departPos="62.84" departSpeed="0.00" departDelay="0.24" arrival="255.00" arrivalLane="222605086_1" arrivalPos="27.07" arrivalSpeed="4.13" duration="213.00" routeLength="1730.67" waitingTime="57.00" waitingCount="1" stopTime="0.00" timeLoss="77.86" rerouteNo="0" devices="tripinfo_veh58" vType="delivery" speedFactor="0.96" vaporized=""/>
    <tripinfo id="veh227" depart="164.00" departLane="-1136301811_1" departPos="21.80" departSpeed="0.00" departDelay="0.56" arrival="260.00" arrivalLane="-48778441#0_1" arrivalPos="36.99" arrivalSpeed="11.22" duration="96.00" routeLength="846.54" waitingTime="0.00" waitingCount="0" stopTime="0.00" timeLoss="19.70" rerouteNo="0" devices="tripinfo_veh227" vType="passenger" speedFactor="0.87" vaporized=""/>
    <tripinfo id="veh191" depart="138.00" departLane="223883702_1" departPos="263.17" departSpeed="0.00" departDelay="0.48" arrival="261.00" arrivalLane="-43546688#2_1" arrivalPos="41.74" arrivalSpeed="13.47" duration="123.00" routeLength="1455.53" waitingTime="0.00" waitingCount="0" stopTime="0.00" timeLoss="22.00" rerouteNo="0" devices="tripinfo_veh191" vType="delivery" speedFactor="1.08" vaporized=""/>
    <tripinfo id="veh285" depart="206.00" departLane="43546648#2_1" departPos="46.62" departSpeed="0.00" departDelay="0.80" arrival="261.00" arrivalLane="-1135856957_0" arrivalPos="27.07" arrivalSpeed="6.42" duration="55.00" routeLength="479.18" waitingTime="0.00" waitingCount="0" stopTime="0.00" timeLoss="18.82" rerouteNo="0" devices="tripinfo_veh285" vType="passenger" speedFactor="1.19" vaporized=""/>
    <tripinfo id="veh134" depart="97.00" departLane="-258551279_0" departPos="103.39" departSpeed="0.00" departDelay="0.52" arrival="262.00" arrivalLane="354252039#0_1" arrivalPos="50.46" arrivalSpeed="12.50" duration="165.00" routeLength="1329.71" waitingTime="37.00" waitingCount="1" stopTime="0.00" timeLoss="56.86" rerouteNo="0" devices="tripinfo_veh134" vType="passenger" speedFactor="0.97" vaporized=""/>
    <tripinfo id="veh127" depart="92.00" departLane="273836978#1_1" departPos="10.76" departSpeed="0.00" departDelay="0.56" arrival="263.00" arrivalLane="-40304754#2_1" arrivalPos="101.06" arrivalSpeed="13.11" duration="171.00" routeLength="1812.00" waitingTime="3.00" waitingCount="1" stopTime="0.00" timeLoss="36.86" rerouteNo="0" devices="tripinfo_veh127" vType="motorcycle" speedFactor="1.01" vaporized=""/>
    <tripinfo id="veh136" depart="98.00" departLane="1205541342_1" departPos="7.65" departSpeed="0.00" departDelay="0.08" arrival="264.00" arrivalLane="48778441#0_1" arrivalPos="38.64" arrivalSpeed="13.86" duration="166.00" routeLength="1626.30" waitingTime="16.00" waitingCount="2" stopTime="0.00" timeLoss="53.11" rerouteNo="0" devices="tripinfo_veh136" vType="passenger" speedFactor="1.13" vaporized=""/>
    <tripinfo id="veh90" depart="67.00" departLane="273836978#0_1" departPos="7.02" departSpeed="0.00" departDelay="2.20" arrival="265.00" arrivalLane="43546105#3_1" arrivalPos="36.33" arrivalSpeed="13.53" duration="198.00" routeLength="2296.76" waitingTime="0.00" waitingCount="0" stopTime="0.00" timeLoss="28.58" rerouteNo="0" devices="tripinfo_veh90" vType="delivery" speedFactor="1.01" vaporized=""/>
    <tripinfo id="veh230" depart="166.00" departLane="-1276522491_0" departPos="51.66" departSpeed="0.00" departDelay="0.40" arrival="265.00" arrivalLane="48736605_1" arrivalPos="236.72" arrivalSpeed="13.94" duration="99.00" routeLength="1161.63" waitingTime="0.00" waitingCount="0" stopTime="0.00" timeLoss="11.55" rerouteNo="0" devices="tripinfo_veh230" vType="passenger" speedFactor="1.05" vaporized=""/>
    <tripinfo id="veh233" depart="168.00" departLane="-48778498#2_1" departPos="46.50" departSpeed="0.00" departDelay="0.24" arrival="265.00" arrivalLane="-43573573#0_1" arrivalPos="20.40" arrivalSpeed="13.56" duration="97.00" routeLength="956.31" waitingTime="0.00" waitingCount="0" stopTime="0.00" timeLoss="21.79" rerouteNo="0" devices="tripinfo_veh233" vType="passenger" speedFactor="0.98" vaporized=""/>
    <tripinfo id="veh259" depart="187.00" departLane="48797770_1" departPos="19.09" departSpeed="0.00" departDelay="0.52" arrival="267.00" arrivalLane="48736613#3_1" arrivalPos="42.68" arrivalSpeed="13.79" duration="80.00" routeLength="960.87" waitingTime="0.00" waitingCount="0" stopTime="0.00" timeLoss="13.39" rerouteNo="0" devices="tripinfo_veh259" vType="passenger" speedFactor="1.09" vaporized=""/>
    <tripinfo id="veh63" depart="46.00" departLane="-984513295_0" departPos="19.15" departSpeed="0.00" departDelay="0.64" arrival="269.00" arrivalLane="-48778473#0_1" arrivalPos="21.31" arrivalSpeed="11.70" duration="223.00" routeLength="2149.53" waitingTime="17.00" waitingCount="2" stopTime="0.00" timeLoss="47.73" rerouteNo="0" devices="tripinfo_veh63" vType="passenger" speedFactor="0.92" vaporized=""/>