<?xml version="1.0" encoding="UTF-8"?>

<!-- generated on 2025-06-12 11:54:41 by Eclipse SUMO sumo Version 1.22.0
<sumoConfiguration xmlns:xsi="http://www.w3.org/2001/XMLSchema-instance" xsi:noNamespaceSchemaLocation="http://sumo.dlr.de/xsd/sumoConfiguration.xsd">

    <input>
        <net-file value="E:/licenta/oras-mediu/2025-06-05-11-45-23/osm.net.xml"/>
        <route-files value="E:/licenta/oras-mediu/2025-06-05-11-45-23/full.rou.xml,E:/licenta/oras-mediu/2025-06-05-11-45-23/ ped.rou.xml,E:/licenta/oras-mediu/2025-06-05-11-45-23/ truck.rou.xml"/>
        <additional-files value="E:/licenta/oras-mediu/2025-06-05-11-45-23/osm.poly.xml,E:/licenta/oras-mediu/2025-06-05-11-45-23/ vtypes.xml"/>
    </input>

    <output>
        <summary-output value="E:/licenta/oras-mediu/2025-06-05-11-45-23/summary.xml"/>
        <tripinfo-output value="E:/licenta/oras-mediu/2025-06-05-11-45-23/tripinfo.xml"/>
    </output>

    <processing>
        <ignore-route-errors value="true"/>
        <tls.actuated.jam-threshold value="30"/>
    </processing>

    <routing>
        <device.rerouting.adaptation-steps value="18"/>
        <device.rerouting.adaptation-interval value="10"/>
    </routing>

    <report>
        <verbose value="true"/>
        <duration-log.statistics value="true"/>
        <no-step-log value="true"/>
    </report>

    <traci_server>
        <remote-port value="63528"/>
    </traci_server>

    <gui_only>
        <gui-settings-file value="E:/licenta/oras-mediu/2025-06-05-11-45-23/osm.view.xml"/>
    </gui_only>

</sumoConfiguration>
-->

<tripinfos xmlns:xsi="http://www.w3.org/2001/XMLSchema-instance" xsi:noNamespaceSchemaLocation="http://sumo.dlr.de/xsd/tripinfo_file.xsd">
    <tripinfo id="veh5" depart="3.00" departLane="43546935#2_1" departPos="24.14" departSpeed="0.00" departDelay="0.05" arrival="41.00" arrivalLane="43544138#4_1" arrivalPos="45.15" arrivalSpeed="13.28" duration="38.00" routeLength="344.70" waitingTime="0.00" waitingCount="0" stopTime="0.00" timeLoss="11.63" rerouteNo="0" devices="tripinfo_veh5" vType="delivery" speedFactor="1.05" vaporized=""/>
    <tripinfo id="veh6" depart="4.00" departLane="48736621#1_1" departPos="0.15" departSpeed="0.00" departDelay="0.46" arrival="41.00" arrivalLane="143207982#3_1" arrivalPos="25.25" arrivalSpeed="12.25" duration="37.00" routeLength="285.55" waitingTime="0.00" waitingCount="0" stopTime="0.00" timeLoss="11.15" rerouteNo="0" devices="tripinfo_veh6" vType="passenger" speedFactor="0.92" vaporized=""/>
    <tripinfo id="veh2" depart="2.00" departLane="-1136289990_1" departPos="8.50" departSpeed="0.00" departDelay="0.82" arrival="52.00" arrivalLane="48778431#4_2" arrivalPos="151.14" arrivalSpeed="14.31" duration="50.00" routeLength="538.04" waitingTime="0.00" waitingCount="0" stopTime="0.00" timeLoss="10.16" rerouteNo="0" devices="tripinfo_veh2" vType="passenger" speedFactor="1.08" vaporized=""/>
    <tripinfo id="veh109" depart="65.00" departLane="43544138#0_1" departPos="21.36" departSpeed="0.00" departDelay="0.69" arrival="75.00" arrivalLane="43544138#2_1" arrivalPos="0.20" arrivalSpeed="13.63" duration="10.00" routeLength="77.78" waitingTime="0.00" waitingCount="0" stopTime="0.00" timeLoss="3.64" rerouteNo="0" devices="tripinfo_veh109" vType="passenger" speedFactor="1.03" vaporized=""/>
    <personinfo id="ped16" depart="80.00" type="DEFAULT_PEDTYPE" speedFactor="0.87" duration="2.00" waitingTime="0.00" timeLoss="0.81" traveltime="2.00">
        <walk depart="80.00" departPos="0.00" arrival="82.00" arrivalPos="1.43" duration="2.00" routeLength="1.43" timeLoss="0.81" maxSpeed="1.20"/>
    </personinfo>
    <tripinfo id="veh45" depart="27.00" departLane="-43544001#15_1" departPos="9.21" departSpeed="0.00" departDelay="0.45" arrival="83.00" arrivalLane="143207979#7_1" arrivalPos="72.83" arrivalSpeed="13.75" duration="56.00" routeLength="581.71" waitingTime="0.00" waitingCount="0" stopTime="0.00" timeLoss="11.88" rerouteNo="0" devices="tripinfo_veh45" vType="passenger" speedFactor="1.00" vaporized=""/>
    <tripinfo id="veh23" depart="14.00" departLane="92198453#0_1" departPos="183.46" departSpeed="0.00" departDelay="0.43" arrival="84.00" arrivalLane="-223942064#2_0" arrivalPos="10.18" arrivalSpeed="12.72" duration="70.00" routeLength="782.60" waitingTime="0.00" waitingCount="0" stopTime="0.00" timeLoss="12.32" rerouteNo="0" devices="tripinfo_veh23" vType="passenger" speedFactor="0.99" vaporized=""/>
    <personinfo id="ped5" depart="25.00" type="DEFAULT_PEDTYPE" speedFactor="1.08" duration="60.00" waitingTime="0.00" timeLoss="6.87" traveltime="60.00">
        <walk depart="25.00" departPos="0.00" arrival="85.00" arrivalPos="8.20" duration="60.00" routeLength="79.74" timeLoss="6.87" maxSpeed="1.50"/>
    </personinfo>
    <tripinfo id="veh19" depart="12.00" departLane="48778498#2_1" departPos="40.32" departSpeed="0.00" departDelay="0.79" arrival="100.00" arrivalLane="40304754#4_1" arrivalPos="101.37" arrivalSpeed="14.98" duration="88.00" routeLength="1080.28" waitingTime="0.00" waitingCount="0" stopTime="0.00" timeLoss="17.54" rerouteNo="0" devices="tripinfo_veh19" vType="passenger" speedFactor="1.13" vaporized=""/>
    <tripinfo id="veh74" depart="44.00" departLane="354252043_1" departPos="31.56" departSpeed="0.00" departDelay="0.34" arrival="104.00" arrivalLane="-43544624#1_1" arrivalPos="93.66" arrivalSpeed="13.99" duration="60.00" routeLength="555.92" waitingTime="0.00" waitingCount="0" stopTime="0.00" timeLoss="17.92" rerouteNo="0" devices="tripinfo_veh74" vType="passenger" speedFactor="1.06" vaporized=""/>
    <tripinfo id="veh59" depart="35.00" departLane="-1364605473_0" departPos="10.76" departSpeed="0.00" departDelay="0.19" arrival="105.00" arrivalLane="E13_2" arrivalPos="35.68" arrivalSpeed="5.22" duration="70.00" routeLength="533.41" waitingTime="0.00" waitingCount="0" stopTime="0.00" timeLoss="28.78" rerouteNo="0" devices="tripinfo_veh59" vType="passenger" speedFactor="1.12" vaporized=""/>
    <tripinfo id="veh90" depart="54.00" departLane="-43546460#10_1" departPos="33.17" departSpeed="0.00" departDelay="0.90" arrival="111.00" arrivalLane="-383582499#3_1" arrivalPos="71.68" arrivalSpeed="13.71" duration="57.00" routeLength="699.39" waitingTime="0.00" waitingCount="0" stopTime="0.00" timeLoss="6.76" rerouteNo="0" devices="tripinfo_veh90" vType="delivery" speedFactor="1.03" vaporized=""/>
    <tripinfo id="veh7" depart="5.00" departLane="-48778496_1" departPos="33.82" departSpeed="0.00" departDelay="0.87" arrival="114.00" arrivalLane="-43573769#1_1" arrivalPos="54.95" arrivalSpeed="14.89" duration="109.00" routeLength="1201.17" waitingTime="1.00" waitingCount="1" stopTime="0.00" timeLoss="25.52" rerouteNo="0" devices="tripinfo_veh7" vType="passenger" speedFactor="1.12" vaporized=""/>
    <tripinfo id="veh30" depart="18.00" departLane="48778517#0_1" departPos="3.75" departSpeed="0.00" departDelay="0.30" arrival="116.00" arrivalLane="-222609004#0_1" arrivalPos="31.40" arrivalSpeed="14.06" duration="98.00" routeLength="1130.36" waitingTime="0.00" waitingCount="0" stopTime="0.00" timeLoss="15.31" rerouteNo="0" devices="tripinfo_veh30" vType="passenger" speedFactor="1.07" vaporized=""/>
    <tripinfo id="veh26" depart="16.00" departLane="48736664#0_1" departPos="13.38" departSpeed="0.00" departDelay="0.66" arrival="119.00" arrivalLane="40314876_1" arrivalPos="38.09" arrivalSpeed="12.73" duration="103.00" routeLength="1013.42" waitingTime="0.00" waitingCount="0" stopTime="0.00" timeLoss="19.93" rerouteNo="0" devices="tripinfo_veh26" vType="passenger" speedFactor="0.94" vaporized=""/>
    <personinfo id="ped15" depart="75.00" type="DEFAULT_PEDTYPE" speedFactor="1.00" duration="45.00" waitingTime="0.00" timeLoss="5.28" traveltime="45.00">
        <walk depart="75.00" departPos="0.00" arrival="120.00" arrivalPos="11.24" duration="45.00" routeLength="54.96" timeLoss="5.28" maxSpeed="1.38"/>
    </personinfo>
    <tripinfo id="veh128" depart="76.00" departLane="48778431#5_2" departPos="21.47" departSpeed="0.00" departDelay="0.48" arrival="130.00" arrivalLane="-43544001#11_1" arrivalPos="49.44" arrivalSpeed="14.83" duration="54.00" routeLength="570.60" waitingTime="3.00" waitingCount="1" stopTime="0.00" timeLoss="14.30" rerouteNo="0" devices="tripinfo_veh128" vType="passenger" speedFactor="1.07" vaporized=""/>
    <tripinfo id="veh4" depart="3.00" departLane="945793490#0_1" departPos="12.58" departSpeed="0.00" departDelay="0.64" arrival="131.00" arrivalLane="945794109_1" arrivalPos="21.82" arrivalSpeed="7.97" duration="128.00" routeLength="1193.04" waitingTime="0.00" waitingCount="0" stopTime="0.00" timeLoss="15.73" rerouteNo="0" devices="tripinfo_veh4" vType="passenger" speedFactor="1.02" vaporized=""/>
    <tripinfo id="veh35" depart="21.00" departLane="40329447_1" departPos="4.71" departSpeed="0.00" departDelay="0.35" arrival="131.00" arrivalLane="1135854210_1" arrivalPos="13.11" arrivalSpeed="4.05" duration="110.00" routeLength="808.95" waitingTime="2.00" waitingCount="1" stopTime="0.00" timeLoss="26.97" rerouteNo="0" devices="tripinfo_veh35" vType="passenger" speedFactor="0.88" vaporized=""/>
    <tripinfo id="veh3" depart="2.00" departLane="1136284448_1" departPos="1.50" departSpeed="0.00" departDelay="0.23" arrival="133.00" arrivalLane="-43546057_1" arrivalPos="223.56" arrivalSpeed="12.49" duration="131.00" routeLength="1342.73" waitingTime="0.00" waitingCount="0" stopTime="0.00" timeLoss="21.14" rerouteNo="0" devices="tripinfo_veh3" vType="passenger" speedFactor="0.94" vaporized=""/>
    <personinfo id="ped26" depart="130.00" type="DEFAULT_PEDTYPE" speedFactor="0.70" duration="7.00" waitingTime="0.00" timeLoss="0.84" traveltime="7.00">
        <walk depart="130.00" departPos="0.00" arrival="137.00" arrivalPos="5.99" duration="7.00" routeLength="5.99" timeLoss="0.84" maxSpeed="0.97"/>
    </personinfo>
    <tripinfo id="veh21" depart="13.00" departLane="43546105#1_1" departPos="158.52" departSpeed="0.00" departDelay="0.61" arrival="142.00" arrivalLane="48778498#1_1" arrivalPos="23.68" arrivalSpeed="11.40" duration="129.00" routeLength="1626.66" waitingTime="0.00" waitingCount="0" stopTime="0.00" timeLoss="23.57" rerouteNo="0" devices="tripinfo_veh21" vType="passenger" speedFactor="1.15" vaporized=""/>
    <tripinfo id="veh61" depart="36.00" departLane="258551284#0_1" departPos="83.63" departSpeed="0.00" departDelay="0.01" arrival="142.00" arrivalLane="-250295380#0_1" arrivalPos="168.50" arrivalSpeed="11.75" duration="106.00" routeLength="1162.81" waitingTime="0.00" waitingCount="0" stopTime="0.00" timeLoss="12.81" rerouteNo="0" devices="tripinfo_veh61" vType="passenger" speedFactor="0.92" vaporized=""/>
    <tripinfo id="veh44" depart="26.00" departLane="250295513_1" departPos="6.76" departSpeed="0.00" departDelay="0.04" arrival="143.00" arrivalLane="-1135856746#1_1" arrivalPos="137.93" arrivalSpeed="13.57" duration="117.00" routeLength="1336.52" waitingTime="0.00" waitingCount="0" stopTime="0.00" timeLoss="20.56" rerouteNo="0" devices="tripinfo_veh44" vType="passenger" speedFactor="1.02" vaporized=""/>
    <tripinfo id="veh1" depart="1.00" departLane="48778473#1_1" departPos="1.41" departSpeed="0.00" departDelay="0.41" arrival="146.00" arrivalLane="-43544179#2_1" arrivalPos="111.50" arrivalSpeed="14.13" duration="145.00" routeLength="1685.80" waitingTime="0.00" waitingCount="0" stopTime="0.00" timeLoss="28.95" rerouteNo="0" devices="tripinfo_veh1" vType="passenger" speedFactor="1.08" vaporized=""/>
    <tripinfo id="veh117" depart="70.00" departLane="43573547#3_1" departPos="30.90" departSpeed="0.00" departDelay="0.97" arrival="149.00" arrivalLane="1136283379#1_1" arrivalPos="30.99" arrivalSpeed="8.10" duration="79.00" routeLength="846.99" waitingTime="1.00" waitingCount="1" stopTime="0.00" timeLoss="16.38" rerouteNo="0" devices="tripinfo_veh117" vType="passenger" speedFactor="1.06" vaporized=""/>
    <tripinfo id="veh54" depart="32.00" departLane="48778441#2_1" departPos="6.81" departSpeed="0.00" departDelay="0.14" arrival="151.00" arrivalLane="48797768_1" arrivalPos="94.07" arrivalSpeed="12.51" duration="119.00" routeLength="1242.93" waitingTime="0.00" waitingCount="0" stopTime="0.00" timeLoss="16.02" rerouteNo="0" devices="tripinfo_veh54" vType="passenger" speedFactor="0.91" vaporized=""/>
    <tripinfo id="veh0" depart="0.00" departLane="-1136283361_0" departPos="41.22" departSpeed="0.00" departDelay="0.00" arrival="159.00" arrivalLane="-383582506_0" arrivalPos="44.83" arrivalSpeed="3.99" duration="159.00" routeLength="1514.31" waitingTime="0.00" waitingCount="0" stopTime="0.00" timeLoss="28.58" rerouteNo="0" devices="tripinfo_veh0" vType="motorcycle" speedFactor="0.98" vaporized=""/>
    <tripinfo id="veh130" depart="77.00" departLane="223883703_0" departPos="79.33" departSpeed="0.00" departDelay="0.30" arrival="159.00" arrivalLane="-43544184#4_1" arrivalPos="17.47" arrivalSpeed="15.29" duration="82.00" routeLength="781.02" waitingTime="17.00" waitingCount="1" stopTime="0.00" timeLoss="32.73" rerouteNo="0" devices="tripinfo_veh130" vType="passenger" speedFactor="1.18" vaporized=""/>
    <tripinfo id="veh170" depart="101.00" departLane="-48778453_1" departPos="17.77" departSpeed="0.00" departDelay="0.70" arrival="162.00" arrivalLane="48778492_1" arrivalPos="35.41" arrivalSpeed="8.09" duration="61.00" routeLength="644.60" waitingTime="0.00" waitingCount="0" stopTime="0.00" timeLoss="14.29" rerouteNo="0" devices="tripinfo_veh170" vType="passenger" speedFactor="1.07" vaporized=""/>
    <tripinfo id="veh14" depart="9.00" departLane="353939585#0_1" departPos="10.45" departSpeed="0.00" departDelay="0.74" arrival="163.00" arrivalLane="-48778508#4_1" arrivalPos="24.74" arrivalSpeed="4.18" duration="154.00" routeLength="633.67" waitingTime="0.00" waitingCount="0" stopTime="0.00" timeLoss="11.92" rerouteNo="0" devices="tripinfo_veh14" vType="bicycle" speedFactor="0.80" vaporized=""/>
    <tripinfo id="veh156" depart="93.00" departLane="-671642313_1" departPos="14.50" departSpeed="0.00" departDelay="0.96" arrival="166.00" arrivalLane="994065253_0" arrivalPos="79.67" arrivalSpeed="5.29" duration="73.00" routeLength="722.84" waitingTime="0.00" waitingCount="0" stopTime="0.00" timeLoss="8.99" rerouteNo="0" devices="tripinfo_veh156" vType="delivery" speedFactor="0.99" vaporized=""/>
    <tripinfo id="veh20" depart="12.00" departLane="-48736647#0_1" departPos="49.25" departSpeed="0.00" departDelay="0.20" arrival="167.00" arrivalLane="48778431#1_1" arrivalPos="16.55" arrivalSpeed="11.79" duration="155.00" routeLength="1646.25" waitingTime="0.00" waitingCount="0" stopTime="0.00" timeLoss="19.47" rerouteNo="0" devices="tripinfo_veh20" vType="passenger" speedFactor="0.89" vaporized=""/>
    <tripinfo id="veh64" depart="38.00" departLane="-859732803#0_0" departPos="10.95" departSpeed="0.00" departDelay="0.24" arrival="167.00" arrivalLane="-647762524_1" arrivalPos="48.75" arrivalSpeed="11.82" duration="129.00" routeLength="1150.07" waitingTime="0.00" waitingCount="0" stopTime="0.00" timeLoss="22.12" rerouteNo="0" devices="tripinfo_veh64" vType="passenger" speedFactor="0.90" vaporized=""/>
    <tripinfo id="veh171" depart="101.00" departLane="-48736603#1_1" departPos="114.32" departSpeed="0.00" departDelay="0.11" arrival="168.00" arrivalLane="-174821558#0_0" arrivalPos="33.18" arrivalSpeed="4.37" duration="67.00" routeLength="375.46" waitingTime="0.00" waitingCount="0" stopTime="0.00" timeLoss="11.40" rerouteNo="0" devices="tripinfo_veh171" vType="emergency" speedFactor="1.00" vaporized=""/>
    <tripinfo id="veh62" depart="37.00" departLane="48736638#0_1" departPos="39.51" departSpeed="0.00" departDelay="0.42" arrival="173.00" arrivalLane="143207982#0_1" arrivalPos="45.05" arrivalSpeed="15.02" duration="136.00" routeLength="1127.02" waitingTime="23.00" waitingCount="2" stopTime="0.00" timeLoss="58.72" rerouteNo="0" devices="tripinfo_veh62" vType="passenger" speedFactor="1.09" vaporized=""/>
    <tripinfo id="veh102" depart="61.00" departLane="-43546789#2_1" departPos="1.67" departSpeed="0.00" departDelay="0.82" arrival="174.00" arrivalLane="-859728208#2_0" arrivalPos="86.08" arrivalSpeed="4.85" duration="113.00" routeLength="1171.57" waitingTime="0.00" waitingCount="0" stopTime="0.00" timeLoss="16.93" rerouteNo="0" devices="tripinfo_veh102" vType="passenger" speedFactor="1.03" vaporized=""/>
    <tripinfo id="veh78" depart="47.00" departLane="43573573#2_1" departPos="50.60" departSpeed="0.00" departDelay="0.98" arrival="184.00" arrivalLane="530106516#0_1" arrivalPos="77.36" arrivalSpeed="14.83" duration="137.00" routeLength="1824.27" waitingTime="0.00" waitingCount="0" stopTime="0.00" timeLoss="19.74" rerouteNo="0" devices="tripinfo_veh78" vType="passenger" speedFactor="1.14" vaporized=""/>
    <tripinfo id="veh137" depart="81.00" departLane="48736638#0_1" departPos="11.91" departSpeed="0.00" departDelay="0.17" arrival="185.00" arrivalLane="-256684296_0" arrivalPos="80.07" arrivalSpeed="2.46" duration="104.00" routeLength="605.61" waitingTime="0.00" waitingCount="0" stopTime="0.00" timeLoss="21.66" rerouteNo="0" devices="tripinfo_veh137" vType="passenger" speedFactor="0.97" vaporized=""/>
    <tripinfo id="veh29" depart="18.00" departLane="-222609004#1_1" departPos="19.87" departSpeed="0.00" departDelay="0.89" arrival="188.00" arrivalLane="-48736640#0_1" arrivalPos="56.32" arrivalSpeed="13.14" duration="170.00" routeLength="2032.41" waitingTime="0.00" waitingCount="0" stopTime="0.00" timeLoss="24.65" rerouteNo="0" devices="tripinfo_veh29" vType="passenger" speedFactor="1.03" vaporized=""/>
    <tripinfo id="veh72" depart="43.00" departLane="-1054663943_1" departPos="0.29" departSpeed="0.00" departDelay="0.52" arrival="192.00" arrivalLane="48736666#2_1" arrivalPos="56.15" arrivalSpeed="11.48" duration="149.00" routeLength="1110.15" waitingTime="26.00" waitingCount="2" stopTime="0.00" timeLoss="47.60" rerouteNo="0" devices="tripinfo_veh72" vType="passenger" speedFactor="0.83" vaporized=""/>
    <tripinfo id="veh125" depart="74.00" departLane="43544184#4_1" departPos="11.08" departSpeed="0.00" departDelay="0.25" arrival="192.00" arrivalLane="671642291_1" arrivalPos="61.56" arrivalSpeed="12.55" duration="118.00" routeLength="1225.77" waitingTime="3.00" waitingCount="1" stopTime="0.00" timeLoss="23.56" rerouteNo="0" devices="tripinfo_veh125" vType="passenger" speedFactor="0.97" vaporized=""/>
    <tripinfo id="veh165" depart="98.00" departLane="470207092#0_1" departPos="143.20" departSpeed="0.00" departDelay="0.65" arrival="192.00" arrivalLane="1136301811_1" arrivalPos="31.32" arrivalSpeed="7.76" duration="94.00" routeLength="815.36" waitingTime="0.00" waitingCount="0" stopTime="0.00" timeLoss="20.33" rerouteNo="0" devices="tripinfo_veh165" vType="passenger" speedFactor="1.04" vaporized=""/>
    <personinfo id="ped23" depart="115.00" type="DEFAULT_PEDTYPE" speedFactor="1.04" duration="79.00" waitingTime="0.00" timeLoss="8.34" traveltime="79.00">
        <walk depart="115.00" departPos="0.00" arrival="194.00" arrivalPos="20.62" duration="79.00" routeLength="101.87" timeLoss="8.34" maxSpeed="1.44"/>
    </personinfo>
    <tripinfo id="veh12" depart="8.00" departLane="-222605084#3_1" departPos="1.18" departSpeed="0.00" departDelay="0.92" arrival="194.00" arrivalLane="43544138#0_1" arrivalPos="42.14" arrivalSpeed="12.76" duration="186.00" routeLength="1964.05" waitingTime="0.00" waitingCount="0" stopTime="0.00" timeLoss="25.05" rerouteNo="0" devices="tripinfo_veh12" vType="emergency" speedFactor="1.00" vaporized=""/>
    <tripinfo id="veh56" depart="34.00" departLane="43547296#0_1" departPos="36.19" departSpeed="0.00" departDelay="0.96" arrival="196.00" arrivalLane="647347140#2_1" arrivalPos="24.44" arrivalSpeed="12.91" duration="162.00" routeLength="1829.37" waitingTime="0.00" waitingCount="0" stopTime="0.00" timeLoss="27.62" rerouteNo="0" devices="tripinfo_veh56" vType="passenger" speedFactor="1.02" vaporized=""/>
    <tripinfo id="veh205" depart="121.00" departLane="984521612#0_0" departPos="7.24" departSpeed="0.00" departDelay="0.05" arrival="197.00" arrivalLane="1054663943_1" arrivalPos="27.53" arrivalSpeed="7.12" duration="76.00" routeLength="607.45" waitingTime="0.00" waitingCount="0" stopTime="0.00" timeLoss="17.37" rerouteNo="0" devices="tripinfo_veh205" vType="motorcycle" speedFactor="1.04" vaporized=""/>
    <tripinfo id="veh245" depart="145.00" departLane="-43546064#0_1" departPos="115.44" departSpeed="0.00" departDelay="0.45" arrival="198.00" arrivalLane="354252035_1" arrivalPos="106.56" arrivalSpeed="12.31" duration="53.00" routeLength="520.42" waitingTime="0.00" waitingCount="0" stopTime="0.00" timeLoss="12.44" rerouteNo="0" devices="tripinfo_veh245" vType="delivery" speedFactor="0.98" vaporized=""/>
    <tripinfo id="veh69" depart="41.00" departLane="143207979#7_1" departPos="42.50" departSpeed="0.00" departDelay="0.29" arrival="199.00" arrivalLane="859734514#1_0" arrivalPos="56.51" arrivalSpeed="4.52" duration="158.00" routeLength="1479.86" waitingTime="4.00" waitingCount="1" stopTime="0.00" timeLoss="34.18" rerouteNo="0" devices="tripinfo_veh69" vType="passenger" speedFactor="0.98" vaporized=""/>
    <tripinfo id="veh104" depart="62.00" departLane="33913538#8_2" departPos="0.03" departSpeed="0.00" departDelay="0.64" arrival="207.00" arrivalLane="40299241#2_1" arrivalPos="144.50" arrivalSpeed="11.44" duration="145.00" routeLength="704.87" waitingTime="73.00" waitingCount="1" stopTime="0.00" timeLoss="85.78" rerouteNo="0" devices="tripinfo_veh104" vType="passenger" speedFactor="0.89" vaporized=""/>
    <tripinfo id="veh147" depart="87.00" departLane="48778473#1_1" departPos="9.93" departSpeed="0.00" departDelay="0.27" arrival="210.00" arrivalLane="-647755347#0_1" arrivalPos="70.01" arrivalSpeed="11.12" duration="123.00" routeLength="1108.55" waitingTime="19.00" waitingCount="1" stopTime="0.00" timeLoss="39.13" rerouteNo="0" devices="tripinfo_veh147" vType="motorcycle" speedFactor="0.98" vaporized=""/>
    <tripinfo id="veh114" depart="68.00" departLane="48736664#0_1" departPos="41.63" departSpeed="0.00" departDelay="0.74" arrival="211.00" arrivalLane="-43546343#1_1" arrivalPos="46.32" arrivalSpeed="13.62" duration="143.00" routeLength="1529.82" waitingTime="7.00" waitingCount="1" stopTime="0.00" timeLoss="29.64" rerouteNo="0" devices="tripinfo_veh114" vType="emergency" speedFactor="1.00" vaporized=""/>
    <tripinfo id="veh140" depart="83.00" departLane="401741890_0" departPos="1128.31" departSpeed="0.00" departDelay="0.40" arrival="211.00" arrivalLane="859728207_0" arrivalPos="18.62" arrivalSpeed="5.33" duration="128.00" routeLength="1321.98" waitingTime="0.00" waitingCount="0" stopTime="0.00" timeLoss="12.85" rerouteNo="0" devices="tripinfo_veh140" vType="passenger" speedFactor="0.98" vaporized=""/>
    <tripinfo id="veh255" depart="151.00" departLane="-222605084#6_0" departPos="0.01" departSpeed="0.00" departDelay="0.55" arrival="211.00" arrivalLane="1250915720#5_1" arrivalPos="1.24" arrivalSpeed="4.15" duration="60.00" routeLength="226.24" waitingTime="0.00" waitingCount="0" stopTime="0.00" timeLoss="10.81" rerouteNo="0" devices="tripinfo_veh255" vType="passenger" speedFactor="0.83" vaporized=""/>
    <tripinfo id="veh175" depart="104.00" departLane="43546105#0_1" departPos="194.35" departSpeed="0.00" departDelay="0.75" arrival="212.00" arrivalLane="-43544001#10_1" arrivalPos="37.96" arrivalSpeed="14.12" duration="108.00" routeLength="1233.98" waitingTime="0.00" waitingCount="0" stopTime="0.00" timeLoss="19.03" rerouteNo="0" devices="tripinfo_veh175" vType="delivery" speedFactor="1.03" vaporized=""/>
    <tripinfo id="veh163" depart="97.00" departLane="-40299283_1" departPos="48.87" departSpeed="0.00" departDelay="0.83" arrival="214.00" arrivalLane="135766634_0" arrivalPos="104.66" arrivalSpeed="6.01" duration="117.00" routeLength="1246.32" waitingTime="9.00" waitingCount="1" stopTime="0.00" timeLoss="25.75" rerouteNo="0" devices="tripinfo_veh163" vType="passenger" speedFactor="1.15" vaporized=""/>
    <tripinfo id="veh82" depart="49.00" departLane="383582509_0" departPos="82.88" departSpeed="0.00" departDelay="0.62" arrival="215.00" arrivalLane="-383582513_0" arrivalPos="62.69" arrivalSpeed="5.34" duration="166.00" routeLength="1797.80" waitingTime="0.00" waitingCount="0" stopTime="0.00" timeLoss="21.61" rerouteNo="0" devices="tripinfo_veh82" vType="delivery" speedFactor="0.98" vaporized=""/>
    <tripinfo id="veh150" depart="89.00" departLane="-1135772297_0" departPos="0.21" departSpeed="0.00" departDelay="0.50" arrival="215.00" arrivalLane="647610982#3_1" arrivalPos="42.20" arrivalSpeed="14.08" duration="126.00" routeLength="1455.86" waitingTime="0.00" waitingCount="0" stopTime="0.00" timeLoss="16.49" rerouteNo="0" devices="tripinfo_veh150" vType="passenger" speedFactor="1.03" vaporized=""/>
    <tripinfo id="veh307" depart="182.00" departLane="-143207979#3_1" departPos="0.65" departSpeed="0.00" departDelay="0.87" arrival="219.00" arrivalLane="-43546064#1_1" arrivalPos="98.05" arrivalSpeed="13.99" duration="37.00" routeLength="426.58" waitingTime="0.00" waitingCount="0" stopTime="0.00" timeLoss="7.34" rerouteNo="0" devices="tripinfo_veh307" vType="motorcycle" speedFactor="1.07" vaporized=""/>
    <tripinfo id="veh164" depart="97.00" departLane="-48736614#3_1" departPos="90.43" departSpeed="0.00" departDelay="0.24" arrival="220.00" arrivalLane="-859738688_0" arrivalPos="223.29" arrivalSpeed="4.50" duration="123.00" routeLength="1023.23" waitingTime="0.00" waitingCount="0" stopTime="0.00" timeLoss="16.00" rerouteNo="0" devices="tripinfo_veh164" vType="delivery" speedFactor="0.94" vaporized=""/>
    <tripinfo id="veh122" depart="72.00" departLane="43573478_1" departPos="123.44" departSpeed="0.00" departDelay="0.02" arrival="221.00" arrivalLane="1136283361_0" arrivalPos="47.88" arrivalSpeed="4.78" duration="149.00" routeLength="1150.46" waitingTime="19.00" waitingCount="1" stopTime="0.00" timeLoss="41.31" rerouteNo="0" devices="tripinfo_veh122" vType="passenger" speedFactor="0.89" vaporized=""/>
    <tripinfo id="veh10" depart="6.00" departLane="-223942064#2_0" departPos="8.91" departSpeed="0.00" departDelay="0.10" arrival="222.00" arrivalLane="143207982#4_1" arrivalPos="17.42" arrivalSpeed="13.37" duration="216.00" routeLength="2495.54" waitingTime="17.00" waitingCount="1" stopTime="0.00" timeLoss="40.49" rerouteNo="0" devices="tripinfo_veh10" vType="passenger" speedFactor="1.04" vaporized=""/>
    <tripinfo id="veh18" depart="11.00" departLane="-92198453#6_1" departPos="50.78" departSpeed="0.00" departDelay="0.38" arrival="223.00" arrivalLane="1107366376_0" arrivalPos="149.99" arrivalSpeed="5.45" duration="212.00" routeLength="2499.22" waitingTime="0.00" waitingCount="0" stopTime="0.00" timeLoss="19.67" rerouteNo="0" devices="tripinfo_veh18" vType="passenger" speedFactor="1.03" vaporized=""/>
    <tripinfo id="veh155" depart="92.00" departLane="43573478_1" departPos="168.52" departSpeed="0.00" departDelay="0.55" arrival="229.00" arrivalLane="-48778520_1" arrivalPos="53.92" arrivalSpeed="16.15" duration="137.00" routeLength="1785.59" waitingTime="1.00" waitingCount="1" stopTime="0.00" timeLoss="25.17" rerouteNo="0" devices="tripinfo_veh155" vType="passenger" speedFactor="1.18" vaporized=""/>
    <tripinfo id="veh67" depart="40.00" departLane="-1250915722#5_1" departPos="2.79" departSpeed="0.00" departDelay="0.47" arrival="231.00" arrivalLane="-222609004#0_1" arrivalPos="31.40" arrivalSpeed="7.62" duration="191.00" routeLength="865.40" waitingTime="70.00" waitingCount="1" stopTime="0.00" timeLoss="97.69" rerouteNo="0" devices="tripinfo_veh67" vType="passenger" speedFactor="0.98" vaporized=""/>
    <tripinfo id="veh15" depart="9.00" departLane="43544197#7_1" departPos="26.92" departSpeed="0.00" departDelay="0.15" arrival="233.00" arrivalLane="-996984235_0" arrivalPos="15.63" arrivalSpeed="4.41" duration="224.00" routeLength="2290.11" waitingTime="6.00" waitingCount="1" stopTime="0.00" timeLoss="32.53" rerouteNo="0" devices="tripinfo_veh15" vType="passenger" speedFactor="0.89" vaporized=""/>
    <tripinfo id="veh143" depart="85.00" departLane="-647755347#0_1" departPos="45.94" departSpeed="0.00" departDelay="0.63" arrival="235.00" arrivalLane="647610982#1_1" arrivalPos="73.58" arrivalSpeed="13.55" duration="150.00" routeLength="1307.99" waitingTime="35.00" waitingCount="1" stopTime="0.00" timeLoss="57.92" rerouteNo="0" devices="tripinfo_veh143" vType="passenger" speedFactor="1.06" vaporized=""/>
    <tripinfo id="veh13" depart="8.00" departLane="67712683_1" departPos="80.68" departSpeed="0.00" departDelay="0.33" arrival="236.00" arrivalLane="1107366376_0" arrivalPos="149.99" arrivalSpeed="4.64" duration="228.00" routeLength="2403.65" waitingTime="0.00" waitingCount="0" stopTime="0.00" timeLoss="34.88" rerouteNo="0" devices="tripinfo_veh13" vType="passenger" speedFactor="1.02" vaporized=""/>
    <tripinfo id="veh48" depart="29.00" departLane="E35_1" departPos="29.90" departSpeed="0.00" departDelay="0.68" arrival="237.00" arrivalLane="-43544179#12_1" arrivalPos="77.06" arrivalSpeed="12.54" duration="208.00" routeLength="2615.03" waitingTime="0.00" waitingCount="0" stopTime="0.00" timeLoss="16.72" rerouteNo="0" devices="tripinfo_veh48" vType="delivery" speedFactor="0.99" vaporized=""/>
    <tripinfo id="veh139" depart="83.00" departLane="48778481#2_1" departPos="46.91" departSpeed="0.00" departDelay="0.99" arrival="238.00" arrivalLane="40345956#2_1" arrivalPos="20.97" arrivalSpeed="15.16" duration="155.00" routeLength="1286.61" waitingTime="50.00" waitingCount="1" stopTime="0.00" timeLoss="69.91" rerouteNo="0" devices="tripinfo_veh139" vType="passenger" speedFactor="1.13" vaporized=""/>