<?xml version="1.0" encoding="UTF-8"?>

<!-- generated on 2025-06-12 10:58:05 by Eclipse SUMO sumo Version 1.22.0
<sumoConfiguration xmlns:xsi="http://www.w3.org/2001/XMLSchema-instance" xsi:noNamespaceSchemaLocation="http://sumo.dlr.de/xsd/sumoConfiguration.xsd">

    <input>
        <net-file value="E:/licenta/oras-mediu/2025-06-05-11-45-23/osm.net.xml"/>
        <route-files value="E:/licenta/oras-mediu/2025-06-05-11-45-23/full.rou.xml,E:/licenta/oras-mediu/2025-06-05-11-45-23/ ped.rou.xml,E:/licenta/oras-mediu/2025-06-05-11-45-23/ truck.rou.xml"/>
        <additional-files value="E:/licenta/oras-mediu/2025-06-05-11-45-23/osm.poly.xml,E:/licenta/oras-mediu/2025-06-05-11-45-23/ vtypes.xml"/>
    </input>

    <output>
        <summary-output value="E:/licenta/oras-mediu/2025-06-05-11-45-23/summary.xml"/>
        <tripinfo-output value="E:/licenta/oras-mediu/2025-06-05-11-45-23/tripinfo.xml"/>
    </output>

    <processing>
        <ignore-route-errors value="true"/>
        <tls.actuated.jam-threshold value="30"/>
    </processing>

    <routing>
        <device.rerouting.adaptation-steps value="18"/>
        <device.rerouting.adaptation-interval value="10"/>
    </routing>

    <report>
        <verbose value="true"/>
        <duration-log.statistics value="true"/>
        <no-step-log value="true"/>
    </report>

    <traci_server>
        <remote-port value="61803"/>
    </traci_server>

    <gui_only>
        <gui-settings-file value="E:/licenta/oras-mediu/2025-06-05-11-45-23/osm.view.xml"/>
    </gui_only>

</sumoConfiguration>
-->

<tripinfos xmlns:xsi="http://www.w3.org/2001/XMLSchema-instance" xsi:noNamespaceSchemaLocation="http://sumo.dlr.de/xsd/tripinfo_file.xsd">
    <personinfo id="ped4" depart="20.00" type="DEFAULT_PEDTYPE" speedFactor="1.00" duration="18.00" waitingTime="0.00" timeLoss="2.56" traveltime="18.00">
        <walk depart="20.00" departPos="0.00" arrival="38.00" arrivalPos="8.26" duration="18.00" routeLength="21.54" timeLoss="2.56" maxSpeed="1.39"/>
    </personinfo>
    <tripinfo id="veh55" depart="39.00" departLane="-222605084#9_1" departPos="0.24" departSpeed="0.00" departDelay="0.50" arrival="63.00" arrivalLane="1001108554_1" arrivalPos="3.48" arrivalSpeed="4.18" duration="24.00" routeLength="108.23" waitingTime="0.00" waitingCount="0" stopTime="0.00" timeLoss="3.19" rerouteNo="0" devices="tripinfo_veh55" vType="passenger" speedFactor="0.96" vaporized=""/>
    <personinfo id="ped6" depart="30.00" type="DEFAULT_PEDTYPE" speedFactor="0.96" duration="35.00" waitingTime="0.00" timeLoss="7.81" traveltime="35.00">
        <walk depart="30.00" departPos="0.00" arrival="65.00" arrivalPos="0.10" duration="35.00" routeLength="36.42" timeLoss="7.81" maxSpeed="1.34"/>
    </personinfo>
    <tripinfo id="veh57" depart="40.00" departLane="-48736620#1_1" departPos="54.94" departSpeed="0.00" departDelay="0.10" arrival="94.00" arrivalLane="48736632#0_1" arrivalPos="108.22" arrivalSpeed="12.72" duration="54.00" routeLength="513.48" waitingTime="0.00" waitingCount="0" stopTime="0.00" timeLoss="11.95" rerouteNo="0" devices="tripinfo_veh57" vType="passenger" speedFactor="0.95" vaporized=""/>
    <tripinfo id="veh43" depart="31.00" departLane="-995052416_0" departPos="85.70" departSpeed="0.00" departDelay="0.90" arrival="102.00" arrivalLane="-48798094#1_0" arrivalPos="327.75" arrivalSpeed="14.35" duration="71.00" routeLength="890.18" waitingTime="0.00" waitingCount="0" stopTime="0.00" timeLoss="8.08" rerouteNo="0" devices="tripinfo_veh43" vType="passenger" speedFactor="1.05" vaporized=""/>
    <tripinfo id="veh13" depart="10.00" departLane="250295379_1" departPos="111.01" departSpeed="0.00" departDelay="0.90" arrival="104.00" arrivalLane="859729932_0" arrivalPos="83.63" arrivalSpeed="5.03" duration="94.00" routeLength="849.87" waitingTime="0.00" waitingCount="0" stopTime="0.00" timeLoss="16.38" rerouteNo="0" devices="tripinfo_veh13" vType="delivery" speedFactor="0.97" vaporized=""/>
    <tripinfo id="veh72" depart="51.00" departLane="-48778475#1_1" departPos="2.14" departSpeed="0.00" departDelay="0.60" arrival="105.00" arrivalLane="48778443#0_1" arrivalPos="2.86" arrivalSpeed="6.06" duration="54.00" routeLength="456.31" waitingTime="0.00" waitingCount="0" stopTime="0.00" timeLoss="17.43" rerouteNo="0" devices="tripinfo_veh72" vType="passenger" speedFactor="1.01" vaporized=""/>
    <tripinfo id="veh44" depart="31.00" departLane="-647998063#3_1" departPos="53.98" departSpeed="0.00" departDelay="0.20" arrival="110.00" arrivalLane="43547017#3_1" arrivalPos="48.19" arrivalSpeed="13.56" duration="79.00" routeLength="909.32" waitingTime="0.00" waitingCount="0" stopTime="0.00" timeLoss="12.29" rerouteNo="0" devices="tripinfo_veh44" vType="motorcycle" speedFactor="1.00" vaporized=""/>
    <tripinfo id="veh23" depart="17.00" departLane="48778500#2_1" departPos="126.05" departSpeed="0.00" departDelay="0.90" arrival="112.00" arrivalLane="-43544179#7_1" arrivalPos="45.60" arrivalSpeed="15.53" duration="95.00" routeLength="1198.55" waitingTime="0.00" waitingCount="0" stopTime="0.00" timeLoss="15.65" rerouteNo="0" devices="tripinfo_veh23" vType="passenger" speedFactor="1.13" vaporized=""/>
    <tripinfo id="veh95" depart="67.00" departLane="40330571#3_1" departPos="164.48" departSpeed="0.00" departDelay="0.50" arrival="112.00" arrivalLane="354259933#0_1" arrivalPos="10.70" arrivalSpeed="9.30" duration="45.00" routeLength="462.91" waitingTime="0.00" waitingCount="0" stopTime="0.00" timeLoss="12.94" rerouteNo="0" devices="tripinfo_veh95" vType="passenger" speedFactor="1.13" vaporized=""/>
    <tripinfo id="veh28" depart="20.00" departLane="-470210923#2_2" departPos="32.25" departSpeed="0.00" departDelay="0.40" arrival="120.00" arrivalLane="40265775#0_1" arrivalPos="76.56" arrivalSpeed="13.44" duration="100.00" routeLength="1051.64" waitingTime="0.00" waitingCount="0" stopTime="0.00" timeLoss="21.39" rerouteNo="0" devices="tripinfo_veh28" vType="passenger" speedFactor="0.99" vaporized=""/>
    <tripinfo id="veh35" depart="25.00" departLane="383582514_1" departPos="60.17" departSpeed="0.00" departDelay="0.50" arrival="121.00" arrivalLane="-43544179#1_1" arrivalPos="36.35" arrivalSpeed="13.78" duration="96.00" routeLength="1027.74" waitingTime="0.00" waitingCount="0" stopTime="0.00" timeLoss="17.21" rerouteNo="0" devices="tripinfo_veh35" vType="passenger" speedFactor="1.07" vaporized=""/>
    <tripinfo id="veh8" depart="6.00" departLane="75628811#1_2" departPos="94.04" departSpeed="0.00" departDelay="0.40" arrival="126.00" arrivalLane="878079387#1_0" arrivalPos="300.06" arrivalSpeed="14.80" duration="120.00" routeLength="1648.67" waitingTime="0.00" waitingCount="0" stopTime="0.00" timeLoss="13.62" rerouteNo="0" devices="tripinfo_veh8" vType="passenger" speedFactor="1.12" vaporized=""/>
    <tripinfo id="veh109" depart="77.00" departLane="33909936#2_1" departPos="12.84" departSpeed="0.00" departDelay="0.70" arrival="127.00" arrivalLane="-33909936#0_1" arrivalPos="22.20" arrivalSpeed="12.45" duration="50.00" routeLength="524.94" waitingTime="0.00" waitingCount="0" stopTime="0.00" timeLoss="10.41" rerouteNo="0" devices="tripinfo_veh109" vType="passenger" speedFactor="1.04" vaporized=""/>
    <tripinfo id="veh90" depart="63.00" departLane="48736613#2_1" departPos="26.55" departSpeed="0.00" departDelay="0.00" arrival="130.00" arrivalLane="250295383#1_1" arrivalPos="60.77" arrivalSpeed="11.90" duration="67.00" routeLength="592.53" waitingTime="0.00" waitingCount="0" stopTime="0.00" timeLoss="13.25" rerouteNo="0" devices="tripinfo_veh90" vType="passenger" speedFactor="0.87" vaporized=""/>
    <tripinfo id="veh16" depart="12.00" departLane="-48778516_1" departPos="184.57" departSpeed="0.00" departDelay="0.80" arrival="131.00" arrivalLane="-48778508#1_1" arrivalPos="98.43" arrivalSpeed="13.06" duration="119.00" routeLength="697.28" waitingTime="51.00" waitingCount="1" stopTime="0.00" timeLoss="67.31" rerouteNo="0" devices="tripinfo_veh16" vType="passenger" speedFactor="1.02" vaporized=""/>
    <tripinfo id="veh68" depart="48.00" departLane="40299264#2_1" departPos="37.95" departSpeed="0.00" departDelay="0.40" arrival="135.00" arrivalLane="40334244#0_1" arrivalPos="88.66" arrivalSpeed="13.74" duration="87.00" routeLength="969.97" waitingTime="2.00" waitingCount="1" stopTime="0.00" timeLoss="18.32" rerouteNo="0" devices="tripinfo_veh68" vType="passenger" speedFactor="1.08" vaporized=""/>
    <tripinfo id="veh9" depart="7.00" departLane="33909936#2_1" departPos="52.24" departSpeed="0.00" departDelay="0.70" arrival="141.00" arrivalLane="43544001#12_1" arrivalPos="78.57" arrivalSpeed="12.16" duration="134.00" routeLength="1399.16" waitingTime="0.00" waitingCount="0" stopTime="0.00" timeLoss="17.52" rerouteNo="0" devices="tripinfo_veh9" vType="passenger" speedFactor="0.90" vaporized=""/>
    <tripinfo id="veh165" depart="116.00" departLane="-1250915724#0_1" departPos="6.77" departSpeed="0.00" departDelay="0.50" arrival="148.00" arrivalLane="945793490#3_1" arrivalPos="33.80" arrivalSpeed="4.34" duration="32.00" routeLength="132.51" waitingTime="0.00" waitingCount="0" stopTime="0.00" timeLoss="5.95" rerouteNo="0" devices="tripinfo_veh165" vType="delivery" speedFactor="0.94" vaporized=""/>
    <tripinfo id="veh105" depart="74.00" departLane="-43544179#10_1" departPos="16.52" departSpeed="0.00" departDelay="0.50" arrival="150.00" arrivalLane="-43546053#0_1" arrivalPos="315.83" arrivalSpeed="14.65" duration="76.00" routeLength="912.08" waitingTime="0.00" waitingCount="0" stopTime="0.00" timeLoss="14.94" rerouteNo="0" devices="tripinfo_veh105" vType="passenger" speedFactor="1.12" vaporized=""/>
    <tripinfo id="veh2" depart="2.00" departLane="-945794107_1" departPos="74.24" departSpeed="0.00" departDelay="0.60" arrival="153.00" arrivalLane="43546648#2_1" arrivalPos="79.89" arrivalSpeed="14.79" duration="151.00" routeLength="1814.20" waitingTime="0.00" waitingCount="0" stopTime="0.00" timeLoss="23.68" rerouteNo="0" devices="tripinfo_veh2" vType="passenger" speedFactor="1.08" vaporized=""/>
    <tripinfo id="veh14" depart="10.00" departLane="43544179#0_1" departPos="14.32" departSpeed="0.00" departDelay="0.20" arrival="156.00" arrivalLane="-48778479_1" arrivalPos="432.92" arrivalSpeed="13.27" duration="146.00" routeLength="1779.67" waitingTime="0.00" waitingCount="0" stopTime="0.00" timeLoss="16.65" rerouteNo="0" devices="tripinfo_veh14" vType="emergency" speedFactor="1.00" vaporized=""/>
    <tripinfo id="veh81" depart="57.00" departLane="-48778494#1_1" departPos="4.53" departSpeed="0.00" departDelay="0.30" arrival="159.00" arrivalLane="-40330557#0_1" arrivalPos="52.98" arrivalSpeed="12.76" duration="102.00" routeLength="1095.98" waitingTime="0.00" waitingCount="0" stopTime="0.00" timeLoss="18.63" rerouteNo="0" devices="tripinfo_veh81" vType="emergency" speedFactor="1.00" vaporized=""/>
    <tripinfo id="veh179" depart="126.00" departLane="48797765#0_1" departPos="9.57" departSpeed="0.00" departDelay="0.70" arrival="160.00" arrivalLane="48778443#0_1" arrivalPos="2.86" arrivalSpeed="8.85" duration="34.00" routeLength="304.24" waitingTime="0.00" waitingCount="0" stopTime="0.00" timeLoss="12.71" rerouteNo="0" devices="tripinfo_veh179" vType="passenger" speedFactor="1.17" vaporized=""/>
    <tripinfo id="veh1" depart="1.00" departLane="48778480#0_2" departPos="14.08" departSpeed="0.00" departDelay="0.30" arrival="164.00" arrivalLane="48778514#2_1" arrivalPos="129.42" arrivalSpeed="14.40" duration="163.00" routeLength="2191.16" waitingTime="0.00" waitingCount="0" stopTime="0.00" timeLoss="14.35" rerouteNo="0" devices="tripinfo_veh1" vType="passenger" speedFactor="1.08" vaporized=""/>
    <tripinfo id="veh155" depart="109.00" departLane="-48797774_1" departPos="17.71" departSpeed="0.00" departDelay="0.50" arrival="166.00" arrivalLane="353939585#2_1" arrivalPos="29.71" arrivalSpeed="12.02" duration="57.00" routeLength="551.16" waitingTime="0.00" waitingCount="0" stopTime="0.00" timeLoss="10.86" rerouteNo="0" devices="tripinfo_veh155" vType="passenger" speedFactor="0.91" vaporized=""/>
    <tripinfo id="veh62" depart="44.00" departLane="1054663937_1" departPos="11.41" departSpeed="0.00" departDelay="0.60" arrival="167.00" arrivalLane="-40236203#1_1" arrivalPos="32.69" arrivalSpeed="14.60" duration="123.00" routeLength="1371.28" waitingTime="6.00" waitingCount="1" stopTime="0.00" timeLoss="30.23" rerouteNo="0" devices="tripinfo_veh62" vType="passenger" speedFactor="1.12" vaporized=""/>
    <personinfo id="ped32" depart="160.00" type="DEFAULT_PEDTYPE" speedFactor="1.07" duration="11.00" waitingTime="0.00" timeLoss="0.98" traveltime="11.00">
        <walk depart="160.00" departPos="0.00" arrival="171.00" arrivalPos="9.91" duration="11.00" routeLength="14.83" timeLoss="0.98" maxSpeed="1.48"/>
    </personinfo>
    <tripinfo id="veh162" depart="114.00" departLane="48778473#2_1" departPos="32.18" departSpeed="0.00" departDelay="0.60" arrival="180.00" arrivalLane="40309190_1" arrivalPos="61.38" arrivalSpeed="11.82" duration="66.00" routeLength="685.32" waitingTime="0.00" waitingCount="0" stopTime="0.00" timeLoss="8.26" rerouteNo="0" devices="tripinfo_veh162" vType="passenger" speedFactor="0.90" vaporized=""/>
    <tripinfo id="veh47" depart="33.00" departLane="-48778449#2_1" departPos="32.62" departSpeed="0.00" departDelay="0.10" arrival="181.00" arrivalLane="48778503#0_1" arrivalPos="42.51" arrivalSpeed="12.53" duration="148.00" routeLength="1677.30" waitingTime="0.00" waitingCount="0" stopTime="0.00" timeLoss="21.41" rerouteNo="0" devices="tripinfo_veh47" vType="delivery" speedFactor="0.98" vaporized=""/>
    <tripinfo id="veh145" depart="102.00" departLane="1250915720#5_1" departPos="0.13" departSpeed="0.00" departDelay="0.50" arrival="182.00" arrivalLane="-1250915720#2_1" arrivalPos="2.90" arrivalSpeed="4.16" duration="80.00" routeLength="401.23" waitingTime="3.00" waitingCount="1" stopTime="0.00" timeLoss="16.29" rerouteNo="0" devices="tripinfo_veh145" vType="passenger" speedFactor="0.96" vaporized=""/>
    <tripinfo id="veh29" depart="21.00" departLane="43546519#2_1" departPos="2.81" departSpeed="0.00" departDelay="0.70" arrival="199.00" arrivalLane="-859737784_1" arrivalPos="96.91" arrivalSpeed="8.21" duration="178.00" routeLength="1944.28" waitingTime="2.00" waitingCount="1" stopTime="0.00" timeLoss="29.42" rerouteNo="0" devices="tripinfo_veh29" vType="passenger" speedFactor="0.97" vaporized=""/>
    <tripinfo id="veh142" depart="100.00" departLane="1136284448_1" departPos="17.17" departSpeed="0.00" departDelay="0.60" arrival="200.00" arrivalLane="-40236228#1_1" arrivalPos="43.16" arrivalSpeed="11.79" duration="100.00" routeLength="1004.46" waitingTime="0.00" waitingCount="0" stopTime="0.00" timeLoss="13.24" rerouteNo="0" devices="tripinfo_veh142" vType="passenger" speedFactor="0.87" vaporized=""/>
    <tripinfo id="veh80" depart="56.00" departLane="48788485#7_1" departPos="33.97" departSpeed="0.00" departDelay="0.00" arrival="201.00" arrivalLane="-43546793_1" arrivalPos="192.09" arrivalSpeed="14.65" duration="145.00" routeLength="1742.94" waitingTime="0.00" waitingCount="0" stopTime="0.00" timeLoss="26.87" rerouteNo="0" devices="tripinfo_veh80" vType="passenger" speedFactor="1.10" vaporized=""/>
    <tripinfo id="veh245" depart="172.00" departLane="48778446#2_1" departPos="8.41" departSpeed="0.00" departDelay="0.50" arrival="201.00" arrivalLane="48736640#1_1" arrivalPos="66.91" arrivalSpeed="13.43" duration="29.00" routeLength="294.82" waitingTime="0.00" waitingCount="0" stopTime="0.00" timeLoss="6.45" rerouteNo="0" devices="tripinfo_veh245" vType="delivery" speedFactor="0.98" vaporized=""/>
    <tripinfo id="veh171" depart="120.00" departLane="222609002#3_1" departPos="2.44" departSpeed="0.00" departDelay="0.30" arrival="202.00" arrivalLane="48778431#2_1" arrivalPos="131.16" arrivalSpeed="13.76" duration="82.00" routeLength="936.71" waitingTime="0.00" waitingCount="0" stopTime="0.00" timeLoss="17.11" rerouteNo="0" devices="tripinfo_veh171" vType="passenger" speedFactor="1.07" vaporized=""/>
    <tripinfo id="veh12" depart="9.00" departLane="48797771#0_1" departPos="16.83" departSpeed="0.00" departDelay="0.60" arrival="207.00" arrivalLane="48778431#4_2" arrivalPos="151.14" arrivalSpeed="13.60" duration="198.00" routeLength="2484.80" waitingTime="0.00" waitingCount="0" stopTime="0.00" timeLoss="22.44" rerouteNo="0" devices="tripinfo_veh12" vType="passenger" speedFactor="1.04" vaporized=""/>
    <tripinfo id="veh107" depart="75.00" departLane="-250295383#0_1" departPos="16.03" departSpeed="0.00" departDelay="0.10" arrival="207.00" arrivalLane="143207982#5_1" arrivalPos="37.53" arrivalSpeed="14.27" duration="132.00" routeLength="1230.88" waitingTime="18.00" waitingCount="2" stopTime="0.00" timeLoss="44.05" rerouteNo="0" devices="tripinfo_veh107" vType="passenger" speedFactor="1.03" vaporized=""/>
    <tripinfo id="veh69" depart="49.00" departLane="40265775#1_1" departPos="4.34" departSpeed="0.00" departDelay="0.70" arrival="208.00" arrivalLane="-289113778#0_1" arrivalPos="105.65" arrivalSpeed="12.97" duration="159.00" routeLength="1797.40" waitingTime="0.00" waitingCount="0" stopTime="0.00" timeLoss="23.31" rerouteNo="0" devices="tripinfo_veh69" vType="passenger" speedFactor="0.98" vaporized=""/>
    <tripinfo id="veh97" depart="68.00" departLane="-48778519_1" departPos="37.05" departSpeed="0.00" departDelay="0.10" arrival="211.00" arrivalLane="-647998063#1_1" arrivalPos="65.11" arrivalSpeed="13.62" duration="143.00" routeLength="1634.61" waitingTime="0.00" waitingCount="0" stopTime="0.00" timeLoss="20.15" rerouteNo="0" devices="tripinfo_veh97" vType="passenger" speedFactor="0.99" vaporized=""/>
    <tripinfo id="veh74" depart="52.00" departLane="43544184#1_1" departPos="0.19" departSpeed="0.00" departDelay="0.20" arrival="212.00" arrivalLane="-578560104#4_1" arrivalPos="13.09" arrivalSpeed="11.04" duration="160.00" routeLength="1594.23" waitingTime="0.00" waitingCount="0" stopTime="0.00" timeLoss="19.98" rerouteNo="0" devices="tripinfo_veh74" vType="passenger" speedFactor="0.83" vaporized=""/>
    <tripinfo id="veh189" depart="133.00" departLane="-48778512_1" departPos="49.16" departSpeed="0.00" departDelay="0.70" arrival="212.00" arrivalLane="48778511_1" arrivalPos="75.86" arrivalSpeed="13.92" duration="79.00" routeLength="727.25" waitingTime="4.00" waitingCount="1" stopTime="0.00" timeLoss="25.17" rerouteNo="0" devices="tripinfo_veh189" vType="passenger" speedFactor="1.09" vaporized=""/>
    <tripinfo id="veh113" depart="80.00" departLane="-250295383#3_1" departPos="0.94" departSpeed="0.00" departDelay="0.90" arrival="213.00" arrivalLane="48736622#0_1" arrivalPos="0.20" arrivalSpeed="9.76" duration="133.00" routeLength="1397.99" waitingTime="9.00" waitingCount="1" stopTime="0.00" timeLoss="31.41" rerouteNo="0" devices="tripinfo_veh113" vType="passenger" speedFactor="1.02" vaporized=""/>
    <tripinfo id="veh38" depart="27.00" departLane="-859729931_0" departPos="49.09" departSpeed="0.00" departDelay="0.40" arrival="217.00" arrivalLane="-304695350#1_1" arrivalPos="233.86" arrivalSpeed="8.73" duration="190.00" routeLength="1705.10" waitingTime="32.00" waitingCount="1" stopTime="0.00" timeLoss="56.33" rerouteNo="0" devices="tripinfo_veh38" vType="passenger" speedFactor="1.09" vaporized=""/>
    <tripinfo id="veh63" depart="45.00" departLane="-48778457#1_1" departPos="18.68" departSpeed="0.00" departDelay="0.90" arrival="218.00" arrivalLane="176279225#2_1" arrivalPos="97.77" arrivalSpeed="13.70" duration="173.00" routeLength="1035.02" waitingTime="39.00" waitingCount="2" stopTime="0.00" timeLoss="80.78" rerouteNo="0" devices="tripinfo_veh63" vType="passenger" speedFactor="1.03" vaporized=""/>
    <tripinfo id="veh154" depart="108.00" departLane="174818022#0_0" departPos="20.83" departSpeed="0.00" departDelay="0.20" arrival="218.00" arrivalLane="40299271_1" arrivalPos="40.58" arrivalSpeed="12.50" duration="110.00" routeLength="796.40" waitingTime="0.00" waitingCount="0" stopTime="0.00" timeLoss="19.19" rerouteNo="0" devices="tripinfo_veh154" vType="delivery" speedFactor="0.97" vaporized=""/>
    <tripinfo id="veh188" depart="132.00" departLane="383582506_0" departPos="30.45" departSpeed="0.00" departDelay="0.40" arrival="218.00" arrivalLane="996486454#0_1" arrivalPos="64.29" arrivalSpeed="13.98" duration="86.00" routeLength="846.59" waitingTime="0.00" waitingCount="0" stopTime="0.00" timeLoss="21.99" rerouteNo="0" devices="tripinfo_veh188" vType="passenger" speedFactor="1.06" vaporized=""/>
    <tripinfo id="veh93" depart="66.00" departLane="48778493#1_1" departPos="25.44" departSpeed="0.00" departDelay="0.90" arrival="219.00" arrivalLane="-223942064#2_0" arrivalPos="10.18" arrivalSpeed="12.51" duration="153.00" routeLength="1771.38" waitingTime="0.00" waitingCount="0" stopTime="0.00" timeLoss="14.61" rerouteNo="0" devices="tripinfo_veh93" vType="passenger" speedFactor="0.97" vaporized=""/>
    <personinfo id="ped15" depart="75.00" type="DEFAULT_PEDTYPE" speedFactor="0.85" duration="145.00" waitingTime="0.00" timeLoss="14.98" traveltime="145.00">
        <walk depart="75.00" departPos="0.00" arrival="220.00" arrivalPos="8.26" duration="145.00" routeLength="153.61" timeLoss="14.98" maxSpeed="1.18"/>
    </personinfo>
    <tripinfo id="veh198" depart="139.00" departLane="-43544138#3_1" departPos="31.57" departSpeed="0.00" departDelay="0.40" arrival="222.00" arrivalLane="48778510#0_1" arrivalPos="7.19" arrivalSpeed="9.54" duration="83.00" routeLength="802.11" waitingTime="0.00" waitingCount="0" stopTime="0.00" timeLoss="14.79" rerouteNo="0" devices="tripinfo_veh198" vType="passenger" speedFactor="0.89" vaporized=""/>
    <tripinfo id="veh224" depart="157.00" departLane="48778489#3_1" departPos="32.86" departSpeed="0.00" departDelay="0.20" arrival="222.00" arrivalLane="-223883703_0" arrivalPos="83.93" arrivalSpeed="5.45" duration="65.00" routeLength="646.72" waitingTime="0.00" waitingCount="0" stopTime="0.00" timeLoss="13.39" rerouteNo="0" devices="tripinfo_veh224" vType="delivery" speedFactor="1.13" vaporized=""/>
    <tripinfo id="veh91" depart="64.00" departLane="-48778501_1" departPos="97.53" departSpeed="0.00" departDelay="0.30" arrival="223.00" arrivalLane="48736645_1" arrivalPos="132.12" arrivalSpeed="13.61" duration="159.00" routeLength="1754.62" waitingTime="0.00" waitingCount="0" stopTime="0.00" timeLoss="29.29" rerouteNo="0" devices="tripinfo_veh91" vType="delivery" speedFactor="1.01" vaporized=""/>
    <tripinfo id="veh262" depart="184.00" departLane="-383582854#0_0" departPos="10.76" departSpeed="0.00" departDelay="0.60" arrival="225.00" arrivalLane="-383582853_0" arrivalPos="4.53" arrivalSpeed="5.24" duration="41.00" routeLength="351.52" waitingTime="0.00" waitingCount="0" stopTime="0.00" timeLoss="7.48" rerouteNo="0" devices="tripinfo_veh262" vType="emergency" speedFactor="1.00" vaporized=""/>
    <tripinfo id="veh247" depart="173.00" departLane="43546092_1" departPos="144.94" departSpeed="0.00" departDelay="0.10" arrival="228.00" arrivalLane="-43546105#2_1" arrivalPos="10.89" arrivalSpeed="14.19" duration="55.00" routeLength="595.57" waitingTime="0.00" waitingCount="0" stopTime="0.00" timeLoss="14.81" rerouteNo="0" devices="tripinfo_veh247" vType="passenger" speedFactor="1.10" vaporized=""/>
    <tripinfo id="veh143" depart="101.00" departLane="-48778498#1_1" departPos="20.36" departSpeed="0.00" departDelay="0.90" arrival="230.00" arrivalLane="48736648#1_1" arrivalPos="233.53" arrivalSpeed="3.88" duration="129.00" routeLength="1011.82" waitingTime="0.00" waitingCount="0" stopTime="0.00" timeLoss="16.44" rerouteNo="0" devices="tripinfo_veh143" vType="passenger" speedFactor="0.90" vaporized=""/>
    <tripinfo id="veh42" depart="30.00" departLane="-1250915720#0_1" departPos="1.47" departSpeed="0.00" departDelay="0.60" arrival="231.00" arrivalLane="-43546105#3_1" arrivalPos="36.33" arrivalSpeed="14.54" duration="201.00" routeLength="2308.40" waitingTime="6.00" waitingCount="1" stopTime="0.00" timeLoss="46.34" rerouteNo="0" devices="tripinfo_veh42" vType="passenger" speedFactor="1.17" vaporized=""/>
    <tripinfo id="veh5" depart="4.00" departLane="-492965073#2_1" departPos="95.63" departSpeed="0.00" departDelay="0.50" arrival="232.00" arrivalLane="352818096#0_0" arrivalPos="2.76" arrivalSpeed="7.79" duration="228.00" routeLength="2301.47" waitingTime="40.00" waitingCount="2" stopTime="0.00" timeLoss="63.58" rerouteNo="0" devices="tripinfo_veh5" vType="passenger" speedFactor="1.02" vaporized=""/>
    <tripinfo id="veh101" depart="71.00" departLane="-43544184#4_1" departPos="16.81" departSpeed="0.00" departDelay="0.30" arrival="235.00" arrivalLane="-1251292610_1" arrivalPos="10.57" arrivalSpeed="5.20" duration="164.00" routeLength="1721.30" waitingTime="0.00" waitingCount="0" stopTime="0.00" timeLoss="18.75" rerouteNo="0" devices="tripinfo_veh101" vType="passenger" speedFactor="1.02" vaporized=""/>
    <tripinfo id="veh235" depart="165.00" departLane="43547017#0_1" departPos="16.87" departSpeed="0.00" departDelay="0.50" arrival="235.00" arrivalLane="143207979#4_1" arrivalPos="45.53" arrivalSpeed="12.91" duration="70.00" routeLength="745.13" waitingTime="0.00" waitingCount="0" stopTime="0.00" timeLoss="13.80" rerouteNo="0" devices="tripinfo_veh235" vType="delivery" speedFactor="1.01" vaporized=""/>
    <tripinfo id="veh6" depart="5.00" departLane="48778429#2_1" departPos="0.86" departSpeed="0.00" departDelay="0.80" arrival="240.00" arrivalLane="-67736383_1" arrivalPos="44.80" arrivalSpeed="13.32" duration="235.00" routeLength="2952.00" waitingTime="0.00" waitingCount="0" stopTime="0.00" timeLoss="27.36" rerouteNo="0" devices="tripinfo_veh6" vType="delivery" speedFactor="1.05" vaporized=""/>
    <tripinfo id="veh201" depart="141.00" departLane="383582493_1" departPos="109.63" departSpeed="0.00" departDelay="0.30" arrival="240.00" arrivalLane="40299241#2_1" arrivalPos="144.50" arrivalSpeed="12.76" duration="99.00" routeLength="1082.68" waitingTime="0.00" waitingCount="0" stopTime="0.00" timeLoss="12.24" rerouteNo="0" devices="tripinfo_veh201" vType="delivery" speedFactor="1.01" vaporized=""/>
    <tripinfo id="veh76" depart="54.00" departLane="-222609002#2_1" departPos="1.84" departSpeed="0.00" departDelay="0.80" arrival="243.00" arrivalLane="40330575#3_1" arrivalPos="23.10" arrivalSpeed="13.84" duration="189.00" routeLength="539.77" waitingTime="125.00" waitingCount="2" stopTime="0.00" timeLoss="149.74" rerouteNo="0" devices="tripinfo_veh76" vType="passenger" speedFactor="1.06" vaporized=""/>
    <tripinfo id="veh87" depart="61.00" departLane="1017995181_1" departPos="2.09" departSpeed="0.00" departDelay="0.10" arrival="244.00" arrivalLane="492965073#8_1" arrivalPos="91.29" arrivalSpeed="13.37" duration="183.00" routeLength="1431.34" waitingTime="49.00" waitingCount="2" stopTime="0.00" timeLoss="74.74" rerouteNo="0" devices="tripinfo_veh87" vType="passenger" speedFactor="0.98" vaporized=""/>
    <tripinfo id="veh210" depart="147.00" departLane="-48778524#0_1" departPos="39.53" departSpeed="0.00" departDelay="0.00" arrival="245.00" arrivalLane="143207979#1_1" arrivalPos="43.59" arrivalSpeed="9.85" duration="98.00" routeLength="914.15" waitingTime="0.00" waitingCount="0" stopTime="0.00" timeLoss="11.23" rerouteNo="0" devices="tripinfo_veh210" vType="passenger" speedFactor="0.80" vaporized=""/>
    <tripinfo id="veh48" depart="34.00" departLane="48778493#0_1" departPos="2.89" departSpeed="0.00" departDelay="0.40" arrival="246.00" arrivalLane="40330575#4_1" arrivalPos="66.37" arrivalSpeed="12.89" duration="212.00" routeLength="767.43" waitingTime="123.00" waitingCount="1" stopTime="0.00" timeLoss="151.25" rerouteNo="0" devices="tripinfo_veh48" vType="passenger" speedFactor="1.02" vaporized=""/>
    <tripinfo id="veh124" depart="87.00" departLane="-40299241#0_1" departPos="24.16" departSpeed="0.00" departDelay="0.20" arrival="246.00" arrivalLane="383582854#1_0" arrivalPos="56.91" arrivalSpeed="4.08" duration="159.00" routeLength="990.84" waitingTime="48.00" waitingCount="2" stopTime="0.00" timeLoss="68.18" rerouteNo="0" devices="tripinfo_veh124" vType="passenger" speedFactor="0.92" vaporized=""/>
    <tripinfo id="veh220" depart="154.00" departLane="383582514_1" departPos="120.88" departSpeed="0.00" departDelay="0.00" arrival="248.00" arrivalLane="143207979#3_1" arrivalPos="38.67" arrivalSpeed="11.88" duration="94.00" routeLength="971.68" waitingTime="0.00" waitingCount="0" stopTime="0.00" timeLoss="13.99" rerouteNo="0" devices="tripinfo_veh220" vType="passenger" speedFactor="0.94" vaporized=""/>
    <tripinfo id="veh60" depart="42.00" departLane="-859729931_0" departPos="93.91" departSpeed="0.00" departDelay="0.00" arrival="249.00" arrivalLane="48778500#1_1" arrivalPos="82.22" arrivalSpeed="13.10" duration="207.00" routeLength="1979.29" waitingTime="22.00" waitingCount="2" stopTime="0.00" timeLoss="54.55" rerouteNo="0" devices="tripinfo_veh60" vType="delivery" speedFactor="0.96" vaporized=""/>
    <tripinfo id="veh54" depart="38.00" departLane="-273835688_1" departPos="15.10" departSpeed="0.00" departDelay="0.20" arrival="250.00" arrivalLane="-43546092_1" arrivalPos="223.84" arrivalSpeed="12.87" duration="212.00" routeLength="2456.78" waitingTime="0.00" waitingCount="0" stopTime="0.00" timeLoss="28.06" rerouteNo="0" devices="tripinfo_veh54" vType="delivery" speedFactor="0.99" vaporized=""/>
    <personinfo id="ped13" depart="65.00" type="DEFAULT_PEDTYPE" speedFactor="1.07" duration="186.00" waitingTime="0.00" timeLoss="19.60" traveltime="186.00">
        <walk depart="65.00" departPos="0.00" arrival="251.00" arrivalPos="81.69" duration="186.00" routeLength="248.12" timeLoss="19.60" maxSpeed="1.49"/>
    </personinfo>