<?xml version="1.0" encoding="UTF-8"?>

<!-- generated on 2025-06-12 11:12:01 by Eclipse SUMO sumo Version 1.22.0
<sumoConfiguration xmlns:xsi="http://www.w3.org/2001/XMLSchema-instance" xsi:noNamespaceSchemaLocation="http://sumo.dlr.de/xsd/sumoConfiguration.xsd">

    <input>
        <net-file value="E:/licenta/oras-mediu/2025-06-05-11-45-23/osm.net.xml"/>
        <route-files value="E:/licenta/oras-mediu/2025-06-05-11-45-23/full.rou.xml,E:/licenta/oras-mediu/2025-06-05-11-45-23/ ped.rou.xml,E:/licenta/oras-mediu/2025-06-05-11-45-23/ truck.rou.xml"/>
        <additional-files value="E:/licenta/oras-mediu/2025-06-05-11-45-23/osm.poly.xml,E:/licenta/oras-mediu/2025-06-05-11-45-23/ vtypes.xml"/>
    </input>

    <output>
        <summary-output value="E:/licenta/oras-mediu/2025-06-05-11-45-23/summary.xml"/>
        <tripinfo-output value="E:/licenta/oras-mediu/2025-06-05-11-45-23/tripinfo.xml"/>
    </output>

    <processing>
        <ignore-route-errors value="true"/>
        <tls.actuated.jam-threshold value="30"/>
    </processing>

    <routing>
        <device.rerouting.adaptation-steps value="18"/>
        <device.rerouting.adaptation-interval value="10"/>
    </routing>

    <report>
        <verbose value="true"/>
        <duration-log.statistics value="true"/>
        <no-step-log value="true"/>
    </report>

    <traci_server>
        <remote-port value="62171"/>
    </traci_server>

    <gui_only>
        <gui-settings-file value="E:/licenta/oras-mediu/2025-06-05-11-45-23/osm.view.xml"/>
    </gui_only>

</sumoConfiguration>
-->

<tripinfos xmlns:xsi="http://www.w3.org/2001/XMLSchema-instance" xsi:noNamespaceSchemaLocation="http://sumo.dlr.de/xsd/tripinfo_file.xsd">
    <tripinfo id="veh21" depart="16.00" departLane="1017995181_1" departPos="14.59" departSpeed="0.00" departDelay="0.46" arrival="48.00" arrivalLane="-383582854#2_0" arrivalPos="38.66" arrivalSpeed="4.37" duration="32.00" routeLength="235.81" waitingTime="0.00" waitingCount="0" stopTime="0.00" timeLoss="6.26" rerouteNo="0" devices="tripinfo_veh21" vType="passenger" speedFactor="0.89" vaporized=""/>
    <personinfo id="ped8" depart="40.00" type="DEFAULT_PEDTYPE" speedFactor="1.11" duration="27.00" waitingTime="0.00" timeLoss="4.54" traveltime="27.00">
        <walk depart="40.00" departPos="0.00" arrival="67.00" arrivalPos="0.10" duration="27.00" routeLength="34.50" timeLoss="4.54" maxSpeed="1.54"/>
    </personinfo>
    <tripinfo id="veh24" depart="18.00" departLane="-48797765#2_1" departPos="10.31" departSpeed="0.00" departDelay="0.24" arrival="77.00" arrivalLane="1135772296#1_0" arrivalPos="28.74" arrivalSpeed="4.95" duration="59.00" routeLength="453.54" waitingTime="0.00" waitingCount="0" stopTime="0.00" timeLoss="10.73" rerouteNo="0" devices="tripinfo_veh24" vType="passenger" speedFactor="0.99" vaporized=""/>
    <tripinfo id="veh90" depart="67.00" departLane="-48736641_1" departPos="8.86" departSpeed="0.00" departDelay="0.40" arrival="96.00" arrivalLane="-1054663939_1" arrivalPos="21.68" arrivalSpeed="7.81" duration="29.00" routeLength="235.88" waitingTime="0.00" waitingCount="0" stopTime="0.00" timeLoss="7.50" rerouteNo="0" devices="tripinfo_veh90" vType="passenger" speedFactor="0.97" vaporized=""/>
    <tripinfo id="veh22" depart="17.00" departLane="40299739#1_1" departPos="72.53" departSpeed="0.00" departDelay="0.72" arrival="104.00" arrivalLane="-1135855912_1" arrivalPos="95.20" arrivalSpeed="15.27" duration="87.00" routeLength="1035.21" waitingTime="1.00" waitingCount="1" stopTime="0.00" timeLoss="19.74" rerouteNo="0" devices="tripinfo_veh22" vType="passenger" speedFactor="1.15" vaporized=""/>
    <tripinfo id="veh23" depart="18.00" departLane="-1136301811_1" departPos="8.01" departSpeed="0.00" departDelay="0.98" arrival="105.00" arrivalLane="48778449#0_1" arrivalPos="44.07" arrivalSpeed="15.20" duration="87.00" routeLength="867.10" waitingTime="0.00" waitingCount="0" stopTime="0.00" timeLoss="24.90" rerouteNo="0" devices="tripinfo_veh23" vType="passenger" speedFactor="1.12" vaporized=""/>
    <tripinfo id="veh76" depart="57.00" departLane="258551297#0_0" departPos="3.17" departSpeed="0.00" departDelay="0.76" arrival="106.00" arrivalLane="-40299264#2_1" arrivalPos="30.73" arrivalSpeed="13.26" duration="49.00" routeLength="334.99" waitingTime="0.00" waitingCount="0" stopTime="0.00" timeLoss="9.53" rerouteNo="0" devices="tripinfo_veh76" vType="passenger" speedFactor="1.10" vaporized=""/>
    <personinfo id="ped17" depart="85.00" type="DEFAULT_PEDTYPE" speedFactor="0.90" duration="27.00" waitingTime="0.00" timeLoss="2.69" traveltime="27.00">
        <walk depart="85.00" departPos="0.00" arrival="112.00" arrivalPos="15.55" duration="27.00" routeLength="30.32" timeLoss="2.69" maxSpeed="1.25"/>
    </personinfo>
    <tripinfo id="veh82" depart="61.00" departLane="33913538#6_2" departPos="38.01" departSpeed="0.00" departDelay="0.32" arrival="117.00" arrivalLane="40299241#0_1" arrivalPos="57.32" arrivalSpeed="14.29" duration="56.00" routeLength="681.20" waitingTime="0.00" waitingCount="0" stopTime="0.00" timeLoss="6.93" rerouteNo="0" devices="tripinfo_veh82" vType="passenger" speedFactor="1.03" vaporized=""/>
    <tripinfo id="veh49" depart="37.00" departLane="-1136283379#1_1" departPos="23.23" departSpeed="0.00" departDelay="0.74" arrival="123.00" arrivalLane="43547296#1_1" arrivalPos="14.14" arrivalSpeed="11.16" duration="86.00" routeLength="888.92" waitingTime="0.00" waitingCount="0" stopTime="0.00" timeLoss="13.21" rerouteNo="0" devices="tripinfo_veh49" vType="passenger" speedFactor="0.96" vaporized=""/>
    <tripinfo id="veh80" depart="60.00" departLane="-176279225#0_2" departPos="5.09" departSpeed="0.00" departDelay="0.80" arrival="127.00" arrivalLane="-48736667_1" arrivalPos="112.76" arrivalSpeed="11.22" duration="67.00" routeLength="655.27" waitingTime="0.00" waitingCount="0" stopTime="0.00" timeLoss="10.58" rerouteNo="0" devices="tripinfo_veh80" vType="passenger" speedFactor="0.89" vaporized=""/>
    <tripinfo id="veh9" depart="7.00" departLane="-43546648#1_1" departPos="92.20" departSpeed="0.00" departDelay="0.34" arrival="131.00" arrivalLane="40330575#1_1" arrivalPos="3.63" arrivalSpeed="11.34" duration="124.00" routeLength="1234.93" waitingTime="0.00" waitingCount="0" stopTime="0.00" timeLoss="19.46" rerouteNo="0" devices="tripinfo_veh9" vType="passenger" speedFactor="0.90" vaporized=""/>
    <tripinfo id="veh63" depart="47.00" departLane="647347140#2_1" departPos="0.40" departSpeed="0.00" departDelay="0.38" arrival="137.00" arrivalLane="40304754#3_1" arrivalPos="54.89" arrivalSpeed="11.92" duration="90.00" routeLength="950.31" waitingTime="0.00" waitingCount="0" stopTime="0.00" timeLoss="12.84" rerouteNo="0" devices="tripinfo_veh63" vType="passenger" speedFactor="0.90" vaporized=""/>
    <tripinfo id="veh81" depart="60.00" departLane="-1136119743#1_1" departPos="3.48" departSpeed="0.00" departDelay="0.06" arrival="137.00" arrivalLane="-92198452#2_1" arrivalPos="56.65" arrivalSpeed="14.92" duration="77.00" routeLength="810.94" waitingTime="0.00" waitingCount="0" stopTime="0.00" timeLoss="10.65" rerouteNo="0" devices="tripinfo_veh81" vType="passenger" speedFactor="1.08" vaporized=""/>
    <tripinfo id="veh12" depart="9.00" departLane="43546519#0_1" departPos="400.43" departSpeed="0.00" departDelay="0.12" arrival="138.00" arrivalLane="-43546105#0_1" arrivalPos="198.99" arrivalSpeed="13.12" duration="129.00" routeLength="1291.45" waitingTime="2.00" waitingCount="1" stopTime="0.00" timeLoss="27.92" rerouteNo="0" devices="tripinfo_veh12" vType="delivery" speedFactor="0.97" vaporized=""/>
    <tripinfo id="veh94" depart="70.00" departLane="48736657#1_1" departPos="18.18" departSpeed="0.00" departDelay="0.44" arrival="138.00" arrivalLane="647677163_1" arrivalPos="73.51" arrivalSpeed="13.16" duration="68.00" routeLength="505.18" waitingTime="14.00" waitingCount="1" stopTime="0.00" timeLoss="28.47" rerouteNo="0" devices="tripinfo_veh94" vType="passenger" speedFactor="0.99" vaporized=""/>
    <tripinfo id="veh39" depart="29.00" departLane="-43573573#3_1" departPos="7.36" departSpeed="0.00" departDelay="0.14" arrival="140.00" arrivalLane="43546105#2_1" arrivalPos="10.89" arrivalSpeed="13.94" duration="111.00" routeLength="1291.43" waitingTime="0.00" waitingCount="0" stopTime="0.00" timeLoss="19.97" rerouteNo="0" devices="tripinfo_veh39" vType="passenger" speedFactor="1.05" vaporized=""/>
    <tripinfo id="veh60" depart="45.00" departLane="-530103972_1" departPos="1.63" departSpeed="0.00" departDelay="0.60" arrival="141.00" arrivalLane="-40236203#3_1" arrivalPos="78.82" arrivalSpeed="13.26" duration="96.00" routeLength="813.50" waitingTime="3.00" waitingCount="1" stopTime="0.00" timeLoss="21.95" rerouteNo="0" devices="tripinfo_veh60" vType="passenger" speedFactor="1.03" vaporized=""/>
    <tripinfo id="veh108" depart="80.00" departLane="1135855912_1" departPos="65.97" departSpeed="0.00" departDelay="0.08" arrival="142.00" arrivalLane="48778464#2_1" arrivalPos="24.43" arrivalSpeed="12.55" duration="62.00" routeLength="670.61" waitingTime="0.00" waitingCount="0" stopTime="0.00" timeLoss="12.70" rerouteNo="0" devices="tripinfo_veh108" vType="motorcycle" speedFactor="1.04" vaporized=""/>
    <tripinfo id="veh124" depart="92.00" departLane="43546053#1_1" departPos="71.36" departSpeed="0.00" departDelay="0.24" arrival="146.00" arrivalLane="-647226814#1_1" arrivalPos="38.44" arrivalSpeed="12.02" duration="54.00" routeLength="515.77" waitingTime="0.00" waitingCount="0" stopTime="0.00" timeLoss="10.36" rerouteNo="0" devices="tripinfo_veh124" vType="passenger" speedFactor="0.92" vaporized=""/>
    <tripinfo id="veh45" depart="34.00" departLane="-43546519#2_1" departPos="2.93" departSpeed="0.00" departDelay="0.70" arrival="152.00" arrivalLane="-647762524_1" arrivalPos="48.75" arrivalSpeed="13.11" duration="118.00" routeLength="1102.98" waitingTime="0.00" waitingCount="0" stopTime="0.00" timeLoss="20.38" rerouteNo="0" devices="tripinfo_veh45" vType="passenger" speedFactor="1.00" vaporized=""/>
    <tripinfo id="veh35" depart="26.00" departLane="-353939570#0_1" departPos="22.18" departSpeed="0.00" departDelay="0.10" arrival="160.00" arrivalLane="40299241#1_1" arrivalPos="23.45" arrivalSpeed="12.82" duration="134.00" routeLength="732.40" waitingTime="61.00" waitingCount="1" stopTime="0.00" timeLoss="76.19" rerouteNo="0" devices="tripinfo_veh35" vType="passenger" speedFactor="0.95" vaporized=""/>
    <tripinfo id="veh174" depart="129.00" departLane="-40299739#1_1" departPos="33.73" departSpeed="0.00" departDelay="0.24" arrival="165.00" arrivalLane="40299739#2_1" arrivalPos="43.24" arrivalSpeed="13.15" duration="36.00" routeLength="301.67" waitingTime="0.00" waitingCount="0" stopTime="0.00" timeLoss="10.56" rerouteNo="0" devices="tripinfo_veh174" vType="delivery" speedFactor="1.03" vaporized=""/>
    <tripinfo id="veh89" depart="66.00" departLane="43573547#1_1" departPos="18.81" departSpeed="0.00" departDelay="0.14" arrival="167.00" arrivalLane="40306162#1_1" arrivalPos="38.73" arrivalSpeed="13.97" duration="101.00" routeLength="1134.25" waitingTime="0.00" waitingCount="0" stopTime="0.00" timeLoss="23.44" rerouteNo="0" devices="tripinfo_veh89" vType="passenger" speedFactor="1.10" vaporized=""/>
    <tripinfo id="veh118" depart="88.00" departLane="-289113877#0_1" departPos="168.55" departSpeed="0.00" departDelay="0.68" arrival="171.00" arrivalLane="-43544001#8_1" arrivalPos="45.26" arrivalSpeed="15.81" duration="83.00" routeLength="997.32" waitingTime="0.00" waitingCount="0" stopTime="0.00" timeLoss="19.86" rerouteNo="0" devices="tripinfo_veh118" vType="passenger" speedFactor="1.21" vaporized=""/>
    <tripinfo id="veh190" depart="141.00" departLane="-1250915720#5_1" departPos="0.85" departSpeed="0.00" departDelay="0.40" arrival="171.00" arrivalLane="222605084#1_1" arrivalPos="0.36" arrivalSpeed="4.20" duration="30.00" routeLength="129.55" waitingTime="0.00" waitingCount="0" stopTime="0.00" timeLoss="4.06" rerouteNo="0" devices="tripinfo_veh190" vType="delivery" speedFactor="0.93" vaporized=""/>
    <tripinfo id="veh130" depart="97.00" departLane="48797766#2_1" departPos="174.61" departSpeed="0.00" departDelay="0.80" arrival="173.00" arrivalLane="48736642_1" arrivalPos="97.47" arrivalSpeed="10.07" duration="76.00" routeLength="631.62" waitingTime="0.00" waitingCount="0" stopTime="0.00" timeLoss="14.11" rerouteNo="0" devices="tripinfo_veh130" vType="passenger" speedFactor="0.80" vaporized=""/>
    <tripinfo id="veh73" depart="55.00" departLane="1135772297_0" departPos="4.41" departSpeed="0.00" departDelay="0.98" arrival="178.00" arrivalLane="43546519#2_1" arrivalPos="8.00" arrivalSpeed="11.45" duration="123.00" routeLength="1110.98" waitingTime="4.00" waitingCount="1" stopTime="0.00" timeLoss="24.90" rerouteNo="0" devices="tripinfo_veh73" vType="passenger" speedFactor="0.86" vaporized=""/>
    <tripinfo id="veh106" depart="79.00" departLane="43544138#3_1" departPos="40.84" departSpeed="0.00" departDelay="0.56" arrival="181.00" arrivalLane="43546064#3_1" arrivalPos="334.85" arrivalSpeed="9.76" duration="102.00" routeLength="907.29" waitingTime="3.00" waitingCount="1" stopTime="0.00" timeLoss="21.35" rerouteNo="0" devices="tripinfo_veh106" vType="motorcycle" speedFactor="0.84" vaporized=""/>
    <tripinfo id="veh28" depart="21.00" departLane="1250915722#4_1" departPos="38.65" departSpeed="0.00" departDelay="0.28" arrival="182.00" arrivalLane="-43544184#4_1" arrivalPos="17.47" arrivalSpeed="14.37" duration="161.00" routeLength="1655.70" waitingTime="18.00" waitingCount="1" stopTime="0.00" timeLoss="38.07" rerouteNo="0" devices="tripinfo_veh28" vType="passenger" speedFactor="1.10" vaporized=""/>
    <tripinfo id="veh159" depart="118.00" departLane="40345930_1" departPos="4.94" departSpeed="0.00" departDelay="0.34" arrival="187.00" arrivalLane="-43546109_1" arrivalPos="180.58" arrivalSpeed="13.48" duration="69.00" routeLength="773.82" waitingTime="0.00" waitingCount="0" stopTime="0.00" timeLoss="10.63" rerouteNo="0" devices="tripinfo_veh159" vType="passenger" speedFactor="1.00" vaporized=""/>
    <tripinfo id="veh99" depart="74.00" departLane="-859729932_0" departPos="34.03" departSpeed="0.00" departDelay="0.74" arrival="189.00" arrivalLane="-671642313_1" arrivalPos="16.40" arrivalSpeed="12.34" duration="115.00" routeLength="1345.54" waitingTime="0.00" waitingCount="0" stopTime="0.00" timeLoss="11.23" rerouteNo="0" devices="tripinfo_veh99" vType="passenger" speedFactor="1.02" vaporized=""/>
    <tripinfo id="veh1" depart="1.00" departLane="-43544001#1_1" departPos="0.97" departSpeed="0.00" departDelay="0.26" arrival="190.00" arrivalLane="43544179#0_1" arrivalPos="36.12" arrivalSpeed="14.76" duration="189.00" routeLength="2238.12" waitingTime="0.00" waitingCount="0" stopTime="0.00" timeLoss="34.70" rerouteNo="0" devices="tripinfo_veh1" vType="passenger" speedFactor="1.08" vaporized=""/>
    <personinfo id="ped1" depart="5.00" type="DEFAULT_PEDTYPE" speedFactor="0.83" duration="187.00" waitingTime="0.00" timeLoss="20.05" traveltime="187.00">
        <walk depart="5.00" departPos="0.00" arrival="192.00" arrivalPos="19.36" duration="187.00" routeLength="192.69" timeLoss="20.05" maxSpeed="1.15"/>
    </personinfo>
    <tripinfo id="veh57" depart="43.00" departLane="-222609004#0_1" departPos="10.72" departSpeed="0.00" departDelay="0.82" arrival="193.00" arrivalLane="43547017#3_1" arrivalPos="48.19" arrivalSpeed="13.76" duration="150.00" routeLength="1636.86" waitingTime="2.00" waitingCount="1" stopTime="0.00" timeLoss="32.12" rerouteNo="0" devices="tripinfo_veh57" vType="passenger" speedFactor="1.06" vaporized=""/>
    <tripinfo id="veh153" depart="114.00" departLane="-43544184#1_1" departPos="0.06" departSpeed="0.00" departDelay="0.78" arrival="194.00" arrivalLane="222605089#1_1" arrivalPos="63.12" arrivalSpeed="11.34" duration="80.00" routeLength="836.41" waitingTime="0.00" waitingCount="0" stopTime="0.00" timeLoss="10.48" rerouteNo="0" devices="tripinfo_veh153" vType="passenger" speedFactor="0.89" vaporized=""/>
    <tripinfo id="veh4" depart="3.00" departLane="898519021_1" departPos="46.11" departSpeed="0.00" departDelay="0.04" arrival="195.00" arrivalLane="1251292610_1" arrivalPos="10.57" arrivalSpeed="4.38" duration="192.00" routeLength="1599.74" waitingTime="12.00" waitingCount="1" stopTime="0.00" timeLoss="43.16" rerouteNo="0" devices="tripinfo_veh4" vType="passenger" speedFactor="0.94" vaporized=""/>
    <tripinfo id="veh65" depart="49.00" departLane="33909936#5_1" departPos="52.24" departSpeed="0.00" departDelay="0.90" arrival="195.00" arrivalLane="-48736646#0_1" arrivalPos="88.89" arrivalSpeed="14.90" duration="146.00" routeLength="1779.43" waitingTime="0.00" waitingCount="0" stopTime="0.00" timeLoss="23.16" rerouteNo="0" devices="tripinfo_veh65" vType="passenger" speedFactor="1.08" vaporized=""/>
    <tripinfo id="veh105" depart="78.00" departLane="-48797765#1_1" departPos="12.48" departSpeed="0.00" departDelay="0.30" arrival="198.00" arrivalLane="-43573547#5_1" arrivalPos="56.54" arrivalSpeed="14.10" duration="120.00" routeLength="1273.28" waitingTime="0.00" waitingCount="0" stopTime="0.00" timeLoss="25.40" rerouteNo="0" devices="tripinfo_veh105" vType="passenger" speedFactor="1.03" vaporized=""/>
    <tripinfo id="veh121" depart="90.00" departLane="-48778511_1" departPos="60.30" departSpeed="0.00" departDelay="0.46" arrival="200.00" arrivalLane="-48778500#1_1" arrivalPos="81.60" arrivalSpeed="12.57" duration="110.00" routeLength="1221.89" waitingTime="0.00" waitingCount="0" stopTime="0.00" timeLoss="20.59" rerouteNo="0" devices="tripinfo_veh121" vType="motorcycle" speedFactor="1.04" vaporized=""/>
    <tripinfo id="veh7" depart="6.00" departLane="-470210923#1_2" departPos="71.03" departSpeed="0.00" departDelay="0.82" arrival="201.00" arrivalLane="43544624#1_1" arrivalPos="93.66" arrivalSpeed="12.43" duration="195.00" routeLength="2162.35" waitingTime="0.00" waitingCount="0" stopTime="0.00" timeLoss="22.01" rerouteNo="0" devices="tripinfo_veh7" vType="passenger" speedFactor="0.92" vaporized=""/>
    <tripinfo id="veh199" depart="148.00" departLane="67736383_1" departPos="25.15" departSpeed="0.00" departDelay="0.74" arrival="201.00" arrivalLane="-43544001#6_1" arrivalPos="38.33" arrivalSpeed="13.22" duration="53.00" routeLength="484.27" waitingTime="2.00" waitingCount="1" stopTime="0.00" timeLoss="16.13" rerouteNo="0" devices="tripinfo_veh199" vType="delivery" speedFactor="1.01" vaporized=""/>
    <tripinfo id="veh17" depart="13.00" departLane="43573547#0_1" departPos="61.23" departSpeed="0.00" departDelay="0.42" arrival="202.00" arrivalLane="-48778525#1_1" arrivalPos="14.99" arrivalSpeed="8.90" duration="189.00" routeLength="1870.84" waitingTime="0.00" waitingCount="0" stopTime="0.00" timeLoss="46.07" rerouteNo="0" devices="tripinfo_veh17" vType="passenger" speedFactor="1.01" vaporized=""/>
    <tripinfo id="veh216" depart="160.00" departLane="530103975#0_1" departPos="19.97" departSpeed="0.00" departDelay="0.16" arrival="206.00" arrivalLane="492965073#10_2" arrivalPos="59.45" arrivalSpeed="12.82" duration="46.00" routeLength="462.79" waitingTime="0.00" waitingCount="0" stopTime="0.00" timeLoss="9.40" rerouteNo="0" devices="tripinfo_veh216" vType="passenger" speedFactor="0.96" vaporized=""/>
    <tripinfo id="veh129" depart="99.00" departLane="43573547#5_1" departPos="5.83" departSpeed="0.00" departDelay="3.54" arrival="207.00" arrivalLane="43544624#1_1" arrivalPos="93.66" arrivalSpeed="11.69" duration="108.00" routeLength="1124.15" waitingTime="0.00" waitingCount="0" stopTime="0.00" timeLoss="14.91" rerouteNo="0" devices="tripinfo_veh129" vType="passenger" speedFactor="0.88" vaporized=""/>
    <tripinfo id="veh86" depart="64.00" departLane="48797767#0_1" departPos="2.18" departSpeed="0.00" departDelay="0.36" arrival="209.00" arrivalLane="-43546570#0_1" arrivalPos="43.31" arrivalSpeed="17.24" duration="145.00" routeLength="1976.84" waitingTime="0.00" waitingCount="0" stopTime="0.00" timeLoss="26.27" rerouteNo="0" devices="tripinfo_veh86" vType="passenger" speedFactor="1.25" vaporized=""/>
    <tripinfo id="veh177" depart="131.00" departLane="-43573547#0_1" departPos="90.55" departSpeed="0.00" departDelay="0.02" arrival="210.00" arrivalLane="1136289988_1" arrivalPos="17.66" arrivalSpeed="8.83" duration="79.00" routeLength="929.97" waitingTime="0.00" waitingCount="0" stopTime="0.00" timeLoss="17.62" rerouteNo="0" devices="tripinfo_veh177" vType="passenger" speedFactor="1.17" vaporized=""/>
    <tripinfo id="veh5" depart="4.00" departLane="-222609004#0_1" departPos="17.12" departSpeed="0.00" departDelay="0.30" arrival="211.00" arrivalLane="1250915726_1" arrivalPos="305.21" arrivalSpeed="4.58" duration="207.00" routeLength="1538.70" waitingTime="0.00" waitingCount="0" stopTime="0.00" timeLoss="34.50" rerouteNo="0" devices="tripinfo_veh5" vType="passenger" speedFactor="1.02" vaporized=""/>
    <tripinfo id="veh58" depart="43.00" departLane="40330557#4_1" departPos="3.97" departSpeed="0.00" departDelay="0.08" arrival="215.00" arrivalLane="-48778501_1" arrivalPos="136.18" arrivalSpeed="14.80" duration="172.00" routeLength="738.47" waitingTime="89.00" waitingCount="1" stopTime="0.00" timeLoss="120.17" rerouteNo="0" devices="tripinfo_veh58" vType="passenger" speedFactor="1.12" vaporized=""/>
    <tripinfo id="veh26" depart="20.00" departLane="-40269009#1_1" departPos="4.89" departSpeed="0.00" departDelay="0.76" arrival="218.00" arrivalLane="48736613#4_1" arrivalPos="22.22" arrivalSpeed="11.32" duration="198.00" routeLength="1055.90" waitingTime="87.00" waitingCount="1" stopTime="0.00" timeLoss="115.86" rerouteNo="0" devices="tripinfo_veh26" vType="motorcycle" speedFactor="1.02" vaporized=""/>
    <tripinfo id="veh158" depart="117.00" departLane="222605085#1_1" departPos="118.35" departSpeed="0.00" departDelay="0.08" arrival="219.00" arrivalLane="92198452#2_1" arrivalPos="54.26" arrivalSpeed="12.34" duration="102.00" routeLength="655.54" waitingTime="0.00" waitingCount="0" stopTime="0.00" timeLoss="17.14" rerouteNo="0" devices="tripinfo_veh158" vType="passenger" speedFactor="0.90" vaporized=""/>
    <tripinfo id="veh175" depart="130.00" departLane="-43544179#9_1" departPos="248.66" departSpeed="0.00" departDelay="0.50" arrival="220.00" arrivalLane="-48778516_1" arrivalPos="192.95" arrivalSpeed="13.26" duration="90.00" routeLength="1013.72" waitingTime="0.00" waitingCount="0" stopTime="0.00" timeLoss="16.35" rerouteNo="0" devices="tripinfo_veh175" vType="passenger" speedFactor="1.04" vaporized=""/>
    <tripinfo id="veh53" depart="40.00" departLane="-48778472_1" departPos="17.18" departSpeed="0.00" departDelay="0.78" arrival="222.00" arrivalLane="-1136119745_1" arrivalPos="22.49" arrivalSpeed="13.49" duration="182.00" routeLength="1237.85" waitingTime="60.00" waitingCount="1" stopTime="0.00" timeLoss="84.12" rerouteNo="0" devices="tripinfo_veh53" vType="passenger" speedFactor="1.02" vaporized=""/>
    <tripinfo id="veh25" depart="19.00" departLane="-40236153#0_1" departPos="12.52" departSpeed="0.00" departDelay="0.50" arrival="223.00" arrivalLane="48736624#2_1" arrivalPos="0.20" arrivalSpeed="13.16" duration="204.00" routeLength="2146.59" waitingTime="12.00" waitingCount="2" stopTime="0.00" timeLoss="41.71" rerouteNo="0" devices="tripinfo_veh25" vType="passenger" speedFactor="0.97" vaporized=""/>
    <tripinfo id="veh19" depart="15.00" departLane="-48736613#4_1" departPos="1.98" departSpeed="0.00" departDelay="0.94" arrival="228.00" arrivalLane="222605085#1_1" arrivalPos="200.56" arrivalSpeed="13.75" duration="213.00" routeLength="1957.80" waitingTime="30.00" waitingCount="2" stopTime="0.00" timeLoss="73.68" rerouteNo="0" devices="tripinfo_veh19" vType="passenger" speedFactor="1.03" vaporized=""/>
    <tripinfo id="veh56" depart="42.00" departLane="92198453#5_1" departPos="2.91" departSpeed="0.00" departDelay="0.56" arrival="229.00" arrivalLane="-48736621#1_1" arrivalPos="24.45" arrivalSpeed="12.57" duration="187.00" routeLength="2192.99" waitingTime="0.00" waitingCount="0" stopTime="0.00" timeLoss="20.00" rerouteNo="0" devices="tripinfo_veh56" vType="delivery" speedFactor="0.96" vaporized=""/>
    <tripinfo id="veh101" depart="75.00" departLane="-40236144#1_1" departPos="42.11" departSpeed="0.00" departDelay="0.26" arrival="230.00" arrivalLane="354259933#2_1" arrivalPos="84.82" arrivalSpeed="13.68" duration="155.00" routeLength="1245.72" waitingTime="16.00" waitingCount="1" stopTime="0.00" timeLoss="50.93" rerouteNo="0" devices="tripinfo_veh101" vType="passenger" speedFactor="1.03" vaporized=""/>
    <tripinfo id="veh220" depart="163.00" departLane="222609004#0_1" departPos="5.56" departSpeed="0.00" departDelay="0.20" arrival="232.00" arrivalLane="40309190_1" arrivalPos="61.38" arrivalSpeed="15.64" duration="69.00" routeLength="597.25" waitingTime="8.00" waitingCount="2" stopTime="0.00" timeLoss="28.42" rerouteNo="0" devices="tripinfo_veh220" vType="delivery" speedFactor="1.13" vaporized=""/>
    <personinfo id="ped18" depart="90.00" type="DEFAULT_PEDTYPE" speedFactor="1.02" duration="143.00" waitingTime="0.00" timeLoss="16.54" traveltime="143.00">
        <walk depart="90.00" departPos="0.00" arrival="233.00" arrivalPos="27.44" duration="143.00" routeLength="178.34" timeLoss="16.54" maxSpeed="1.41"/>
    </personinfo>
    <tripinfo id="veh31" depart="23.00" departLane="401741889#0_1" departPos="330.88" departSpeed="0.00" departDelay="0.06" arrival="234.00" arrivalLane="-48736624#3_1" arrivalPos="21.49" arrivalSpeed="11.61" duration="211.00" routeLength="2192.56" waitingTime="15.00" waitingCount="3" stopTime="0.00" timeLoss="59.69" rerouteNo="0" devices="tripinfo_veh31" vType="passenger" speedFactor="1.07" vaporized=""/>
    <tripinfo id="veh116" depart="86.00" departLane="43546039#1_1" departPos="15.12" departSpeed="0.00" departDelay="0.16" arrival="234.00" arrivalLane="43573573#2_1" arrivalPos="202.87" arrivalSpeed="14.56" duration="148.00" routeLength="1785.53" waitingTime="0.00" waitingCount="0" stopTime="0.00" timeLoss="22.79" rerouteNo="0" devices="tripinfo_veh116" vType="delivery" speedFactor="1.06" vaporized=""/>
    <tripinfo id="veh188" depart="140.00" departLane="40304754#0_1" departPos="248.65" departSpeed="0.00" departDelay="0.88" arrival="237.00" arrivalLane="470210923#2_1" arrivalPos="56.87" arrivalSpeed="14.25" duration="97.00" routeLength="1195.94" waitingTime="0.00" waitingCount="0" stopTime="0.00" timeLoss="16.24" rerouteNo="0" devices="tripinfo_veh188" vType="passenger" speedFactor="1.09" vaporized=""/>
    <tripinfo id="veh11" depart="9.00" departLane="48736638#0_1" departPos="41.40" departSpeed="0.00" departDelay="0.86" arrival="238.00" arrivalLane="48778508#2_1" arrivalPos="0.60" arrivalSpeed="14.15" duration="229.00" routeLength="1973.46" waitingTime="44.00" waitingCount="3" stopTime="0.00" timeLoss="88.25" rerouteNo="0" devices="tripinfo_veh11" vType="passenger" speedFactor="1.04" vaporized=""/>
    <tripinfo id="veh96" depart="72.00" departLane="-48797767#2_1" departPos="8.12" departSpeed="0.00" departDelay="0.96" arrival="240.00" arrivalLane="-48736621#0_1" arrivalPos="15.22" arrivalSpeed="12.51" duration="168.00" routeLength="1423.09" waitingTime="23.00" waitingCount="1" stopTime="0.00" timeLoss="53.43" rerouteNo="0" devices="tripinfo_veh96" vType="motorcycle" speedFactor="0.94" vaporized=""/>
    <tripinfo id="veh150" depart="111.00" departLane="143207982#8_1" departPos="35.65" departSpeed="0.00" departDelay="0.00" arrival="240.00" arrivalLane="40299241#0_1" arrivalPos="57.32" arrivalSpeed="13.00" duration="129.00" routeLength="1202.77" waitingTime="12.00" waitingCount="1" stopTime="0.00" timeLoss="35.29" rerouteNo="0" devices="tripinfo_veh150" vType="delivery" speedFactor="0.97" vaporized=""/>
    <tripinfo id="veh197" depart="146.00" departLane="43573769#1_1" departPos="3.64" departSpeed="0.00" departDelay="0.22" arrival="242.00" arrivalLane="222605089#1_1" arrivalPos="63.12" arrivalSpeed="13.68" duration="96.00" routeLength="1036.78" waitingTime="6.00" waitingCount="1" stopTime="0.00" timeLoss="19.89" rerouteNo="0" devices="tripinfo_veh197" vType="emergency" speedFactor="1.00" vaporized=""/>
    <tripinfo id="veh206" depart="154.00" departLane="48778487#1_1" departPos="57.22" departSpeed="0.00" departDelay="1.56" arrival="242.00" arrivalLane="48778510#1_1" arrivalPos="102.69" arrivalSpeed="12.61" duration="88.00" routeLength="878.34" waitingTime="0.00" waitingCount="0" stopTime="0.00" timeLoss="15.67" rerouteNo="0" devices="tripinfo_veh206" vType="passenger" speedFactor="0.93" vaporized=""/>
    <personinfo id="ped7" depart="35.00" type="DEFAULT_PEDTYPE" speedFactor="1.17" duration="210.00" waitingTime="0.00" timeLoss="22.90" traveltime="210.00">
        <walk depart="35.00" departPos="0.00" arrival="245.00" arrivalPos="34.23" duration="210.00" routeLength="303.54" timeLoss="22.90" maxSpeed="1.62"/>
    </personinfo>
    <tripinfo id="veh260" depart="193.00" departLane="-43544588#1_1" departPos="1.83" departSpeed="0.00" departDelay="0.60" arrival="245.00" arrivalLane="-43544197#2_1" arrivalPos="42.39" arrivalSpeed="14.56" duration="52.00" routeLength="482.51" waitingTime="0.00" waitingCount="0" stopTime="0.00" timeLoss="18.21" rerouteNo="0" devices="tripinfo_veh260" vType="passenger" speedFactor="1.13" vaporized=""/>
    <tripinfo id="veh3" depart="3.00" departLane="-578560104#5_1" departPos="3.16" departSpeed="0.00" departDelay="0.78" arrival="249.00" arrivalLane="43546343#1_1" arrivalPos="44.30" arrivalSpeed="13.69" duration="246.00" routeLength="1914.55" waitingTime="68.00" waitingCount="2" stopTime="0.00" timeLoss="111.69" rerouteNo="0" devices="tripinfo_veh3" vType="passenger" speedFactor="1.08" vaporized=""/>
    <personinfo id="ped48" depart="240.00" type="DEFAULT_PEDTYPE" speedFactor="1.00" duration="10.00" waitingTime="0.00" timeLoss="1.12" traveltime="10.00">