<?xml version="1.0" encoding="UTF-8"?>

<!-- generated on 2025-06-12 11:29:52 by Eclipse SUMO sumo Version 1.22.0
<sumoConfiguration xmlns:xsi="http://www.w3.org/2001/XMLSchema-instance" xsi:noNamespaceSchemaLocation="http://sumo.dlr.de/xsd/sumoConfiguration.xsd">

    <input>
        <net-file value="E:/licenta/oras-mediu/2025-06-05-11-45-23/osm.net.xml"/>
        <route-files value="E:/licenta/oras-mediu/2025-06-05-11-45-23/full.rou.xml,E:/licenta/oras-mediu/2025-06-05-11-45-23/ ped.rou.xml,E:/licenta/oras-mediu/2025-06-05-11-45-23/ truck.rou.xml"/>
        <additional-files value="E:/licenta/oras-mediu/2025-06-05-11-45-23/osm.poly.xml,E:/licenta/oras-mediu/2025-06-05-11-45-23/ vtypes.xml"/>
    </input>

    <output>
        <summary-output value="E:/licenta/oras-mediu/2025-06-05-11-45-23/summary.xml"/>
        <tripinfo-output value="E:/licenta/oras-mediu/2025-06-05-11-45-23/tripinfo.xml"/>
    </output>

    <processing>
        <ignore-route-errors value="true"/>
        <tls.actuated.jam-threshold value="30"/>
    </processing>

    <routing>
        <device.rerouting.adaptation-steps value="18"/>
        <device.rerouting.adaptation-interval value="10"/>
    </routing>

    <report>
        <verbose value="true"/>
        <duration-log.statistics value="true"/>
        <no-step-log value="true"/>
    </report>

    <traci_server>
        <remote-port value="62760"/>
    </traci_server>

    <gui_only>
        <gui-settings-file value="E:/licenta/oras-mediu/2025-06-05-11-45-23/osm.view.xml"/>
    </gui_only>

</sumoConfiguration>
-->

<tripinfos xmlns:xsi="http://www.w3.org/2001/XMLSchema-instance" xsi:noNamespaceSchemaLocation="http://sumo.dlr.de/xsd/tripinfo_file.xsd">
    <tripinfo id="veh21" depart="11.00" departLane="250295383#5_1" departPos="8.13" departSpeed="0.00" departDelay="0.50" arrival="67.00" arrivalLane="-48736638#1_1" arrivalPos="84.57" arrivalSpeed="11.32" duration="56.00" routeLength="521.96" waitingTime="0.00" waitingCount="0" stopTime="0.00" timeLoss="10.58" rerouteNo="0" devices="tripinfo_veh21" vType="passenger" speedFactor="0.89" vaporized=""/>
    <tripinfo id="veh51" depart="26.00" departLane="383582512#1_0" departPos="18.54" departSpeed="0.00" departDelay="0.50" arrival="68.00" arrivalLane="-48778520_1" arrivalPos="53.92" arrivalSpeed="13.58" duration="42.00" routeLength="442.94" waitingTime="0.00" waitingCount="0" stopTime="0.00" timeLoss="7.77" rerouteNo="0" devices="tripinfo_veh51" vType="passenger" speedFactor="1.02" vaporized=""/>
    <tripinfo id="veh123" depart="62.00" departLane="40265780#1_1" departPos="36.13" departSpeed="0.00" departDelay="0.50" arrival="78.00" arrivalLane="-258551284#1_1" arrivalPos="135.26" arrivalSpeed="12.99" duration="16.00" routeLength="156.93" waitingTime="0.00" waitingCount="0" stopTime="0.00" timeLoss="3.68" rerouteNo="0" devices="tripinfo_veh123" vType="motorcycle" speedFactor="1.04" vaporized=""/>
    <tripinfo id="veh99" depart="50.00" departLane="43544138#0_1" departPos="24.03" departSpeed="0.00" departDelay="0.50" arrival="82.00" arrivalLane="43546935#1_1" arrivalPos="51.34" arrivalSpeed="13.77" duration="32.00" routeLength="308.89" waitingTime="0.00" waitingCount="0" stopTime="0.00" timeLoss="9.67" rerouteNo="0" devices="tripinfo_veh99" vType="passenger" speedFactor="1.03" vaporized=""/>
    <tripinfo id="veh135" depart="68.00" departLane="-40314583#7_1" departPos="5.31" departSpeed="0.00" departDelay="0.50" arrival="83.00" arrivalLane="48736616#1_1" arrivalPos="27.10" arrivalSpeed="10.65" duration="15.00" routeLength="80.65" waitingTime="0.00" waitingCount="0" stopTime="0.00" timeLoss="6.27" rerouteNo="0" devices="tripinfo_veh135" vType="passenger" speedFactor="0.80" vaporized=""/>
    <tripinfo id="veh57" depart="29.00" departLane="-48736620#1_1" departPos="10.05" departSpeed="0.00" departDelay="0.50" arrival="84.00" arrivalLane="48736602_1" arrivalPos="229.50" arrivalSpeed="11.86" duration="55.00" routeLength="555.47" waitingTime="0.00" waitingCount="0" stopTime="0.00" timeLoss="8.87" rerouteNo="0" devices="tripinfo_veh57" vType="passenger" speedFactor="0.91" vaporized=""/>
    <personinfo id="ped14" depart="70.00" type="DEFAULT_PEDTYPE" speedFactor="1.07" duration="17.00" waitingTime="0.00" timeLoss="1.88" traveltime="17.00">
        <walk depart="70.00" departPos="0.00" arrival="87.00" arrivalPos="8.11" duration="17.00" routeLength="22.38" timeLoss="1.88" maxSpeed="1.48"/>
    </personinfo>
    <tripinfo id="veh46" depart="23.00" departLane="353939586#0_1" departPos="80.75" departSpeed="0.00" departDelay="0.00" arrival="94.00" arrivalLane="48778504_1" arrivalPos="191.60" arrivalSpeed="13.85" duration="71.00" routeLength="795.33" waitingTime="0.00" waitingCount="0" stopTime="0.00" timeLoss="13.78" rerouteNo="0" devices="tripinfo_veh46" vType="passenger" speedFactor="1.05" vaporized=""/>
    <tripinfo id="veh101" depart="51.00" departLane="40236220#1_1" departPos="15.91" departSpeed="0.00" departDelay="0.50" arrival="113.00" arrivalLane="48797765#0_1" arrivalPos="17.85" arrivalSpeed="10.72" duration="62.00" routeLength="511.24" waitingTime="0.00" waitingCount="0" stopTime="0.00" timeLoss="15.22" rerouteNo="0" devices="tripinfo_veh101" vType="passenger" speedFactor="0.89" vaporized=""/>
    <tripinfo id="veh98" depart="49.00" departLane="859732803#0_0" departPos="19.88" departSpeed="0.00" departDelay="0.00" arrival="121.00" arrivalLane="-996984133_1" arrivalPos="75.36" arrivalSpeed="6.18" duration="72.00" routeLength="617.75" waitingTime="0.00" waitingCount="0" stopTime="0.00" timeLoss="15.83" rerouteNo="0" devices="tripinfo_veh98" vType="motorcycle" speedFactor="0.94" vaporized=""/>
    <tripinfo id="veh148" depart="74.00" departLane="48778473#2_1" departPos="2.90" departSpeed="0.00" departDelay="0.00" arrival="122.00" arrivalLane="-43546793_1" arrivalPos="192.09" arrivalSpeed="12.61" duration="48.00" routeLength="532.79" waitingTime="0.00" waitingCount="0" stopTime="0.00" timeLoss="12.28" rerouteNo="0" devices="tripinfo_veh148" vType="motorcycle" speedFactor="1.08" vaporized=""/>
    <personinfo id="ped9" depart="45.00" type="DEFAULT_PEDTYPE" speedFactor="1.04" duration="80.00" waitingTime="0.00" timeLoss="9.20" traveltime="80.00">
        <walk depart="45.00" departPos="0.00" arrival="125.00" arrivalPos="1.45" duration="80.00" routeLength="102.39" timeLoss="9.20" maxSpeed="1.45"/>
    </personinfo>
    <tripinfo id="veh44" depart="22.00" departLane="40236144#1_1" departPos="33.02" departSpeed="0.00" departDelay="0.00" arrival="126.00" arrivalLane="-898519021_1" arrivalPos="62.05" arrivalSpeed="13.99" duration="104.00" routeLength="1073.02" waitingTime="7.00" waitingCount="1" stopTime="0.00" timeLoss="27.67" rerouteNo="0" devices="tripinfo_veh44" vType="passenger" speedFactor="1.06" vaporized=""/>
    <tripinfo id="veh127" depart="64.00" departLane="-43546053#0_1" departPos="303.84" departSpeed="0.00" departDelay="0.50" arrival="126.00" arrivalLane="43546039#1_1" arrivalPos="97.78" arrivalSpeed="15.74" duration="62.00" routeLength="707.85" waitingTime="0.00" waitingCount="0" stopTime="0.00" timeLoss="15.57" rerouteNo="0" devices="tripinfo_veh127" vType="passenger" speedFactor="1.18" vaporized=""/>
    <tripinfo id="veh75" depart="38.00" departLane="43546379_1" departPos="51.52" departSpeed="0.00" departDelay="0.50" arrival="132.00" arrivalLane="48778475#0_1" arrivalPos="50.36" arrivalSpeed="14.53" duration="94.00" routeLength="1074.30" waitingTime="0.00" waitingCount="0" stopTime="0.00" timeLoss="17.17" rerouteNo="0" devices="tripinfo_veh75" vType="passenger" speedFactor="1.06" vaporized=""/>
    <tripinfo id="veh232" depart="116.00" departLane="48736650#0_1" departPos="21.34" departSpeed="0.00" departDelay="0.00" arrival="134.00" arrivalLane="258551297#0_0" arrivalPos="10.90" arrivalSpeed="5.54" duration="18.00" routeLength="161.62" waitingTime="0.00" waitingCount="0" stopTime="0.00" timeLoss="4.55" rerouteNo="0" devices="tripinfo_veh232" vType="passenger" speedFactor="1.05" vaporized=""/>
    <tripinfo id="veh23" depart="12.00" departLane="984521612#1_0" departPos="3.78" departSpeed="0.00" departDelay="0.50" arrival="136.00" arrivalLane="1136283379#1_1" arrivalPos="30.99" arrivalSpeed="6.88" duration="124.00" routeLength="1028.26" waitingTime="12.00" waitingCount="1" stopTime="0.00" timeLoss="29.67" rerouteNo="0" devices="tripinfo_veh23" vType="passenger" speedFactor="0.87" vaporized=""/>
    <tripinfo id="veh66" depart="33.00" departLane="-43546379_1" departPos="16.68" departSpeed="0.00" departDelay="0.00" arrival="137.00" arrivalLane="-48797767#0_1" arrivalPos="21.72" arrivalSpeed="9.07" duration="104.00" routeLength="939.38" waitingTime="0.00" waitingCount="0" stopTime="0.00" timeLoss="21.57" rerouteNo="0" devices="tripinfo_veh66" vType="passenger" speedFactor="0.90" vaporized=""/>
    <tripinfo id="veh62" depart="31.00" departLane="40305706#0_1" departPos="30.20" departSpeed="0.00" departDelay="0.00" arrival="139.00" arrivalLane="-48778505#1_1" arrivalPos="53.40" arrivalSpeed="15.36" duration="108.00" routeLength="1262.32" waitingTime="0.00" waitingCount="0" stopTime="0.00" timeLoss="22.62" rerouteNo="0" devices="tripinfo_veh62" vType="passenger" speedFactor="1.12" vaporized=""/>
    <tripinfo id="veh59" depart="30.00" departLane="-40236144#1_1" departPos="0.62" departSpeed="0.00" departDelay="0.50" arrival="143.00" arrivalLane="-273835688_1" arrivalPos="177.49" arrivalSpeed="13.39" duration="113.00" routeLength="1187.85" waitingTime="0.00" waitingCount="0" stopTime="0.00" timeLoss="24.42" rerouteNo="0" devices="tripinfo_veh59" vType="passenger" speedFactor="1.02" vaporized=""/>
    <tripinfo id="veh113" depart="57.00" departLane="-43544179#7_1" departPos="28.81" departSpeed="0.00" departDelay="0.50" arrival="143.00" arrivalLane="-43546088_1" arrivalPos="225.01" arrivalSpeed="13.90" duration="86.00" routeLength="960.95" waitingTime="0.00" waitingCount="0" stopTime="0.00" timeLoss="13.90" rerouteNo="0" devices="tripinfo_veh113" vType="passenger" speedFactor="1.02" vaporized=""/>
    <tripinfo id="veh93" depart="47.00" departLane="43573769#0_1" departPos="12.26" departSpeed="0.00" departDelay="0.50" arrival="147.00" arrivalLane="-48778502#1_1" arrivalPos="195.25" arrivalSpeed="13.34" duration="100.00" routeLength="779.29" waitingTime="14.00" waitingCount="1" stopTime="0.00" timeLoss="39.81" rerouteNo="0" devices="tripinfo_veh93" vType="passenger" speedFactor="0.97" vaporized=""/>
    <tripinfo id="veh6" depart="3.00" departLane="-671642291_1" departPos="15.24" departSpeed="0.00" departDelay="0.00" arrival="155.00" arrivalLane="43544001#0_1" arrivalPos="29.53" arrivalSpeed="11.49" duration="152.00" routeLength="1798.61" waitingTime="0.00" waitingCount="0" stopTime="0.00" timeLoss="21.52" rerouteNo="0" devices="tripinfo_veh6" vType="passenger" speedFactor="1.02" vaporized=""/>
    <tripinfo id="veh39" depart="20.00" departLane="-40299241#1_1" departPos="4.98" departSpeed="0.00" departDelay="0.50" arrival="156.00" arrivalLane="-48736638#0_1" arrivalPos="65.36" arrivalSpeed="13.96" duration="136.00" routeLength="961.59" waitingTime="47.00" waitingCount="1" stopTime="0.00" timeLoss="67.30" rerouteNo="0" devices="tripinfo_veh39" vType="passenger" speedFactor="1.04" vaporized=""/>
    <tripinfo id="veh11" depart="6.00" departLane="-945793485#0_1" departPos="6.62" departSpeed="0.00" departDelay="0.50" arrival="167.00" arrivalLane="-48736611#0_1" arrivalPos="94.02" arrivalSpeed="6.22" duration="161.00" routeLength="1565.19" waitingTime="0.00" waitingCount="0" stopTime="0.00" timeLoss="23.17" rerouteNo="0" devices="tripinfo_veh11" vType="passenger" speedFactor="0.90" vaporized=""/>
    <tripinfo id="veh80" depart="40.00" departLane="48778489#3_1" departPos="66.78" departSpeed="0.00" departDelay="0.00" arrival="167.00" arrivalLane="-43547017#4_1" arrivalPos="10.44" arrivalSpeed="12.63" duration="127.00" routeLength="1292.96" waitingTime="14.00" waitingCount="1" stopTime="0.00" timeLoss="32.27" rerouteNo="0" devices="tripinfo_veh80" vType="emergency" speedFactor="1.00" vaporized=""/>
    <tripinfo id="veh29" depart="15.00" departLane="43544001#14_1" departPos="56.39" departSpeed="0.00" departDelay="0.50" arrival="169.00" arrivalLane="43573547#6_1" arrivalPos="56.24" arrivalSpeed="12.81" duration="154.00" routeLength="1627.73" waitingTime="11.00" waitingCount="1" stopTime="0.00" timeLoss="33.78" rerouteNo="0" devices="tripinfo_veh29" vType="passenger" speedFactor="0.99" vaporized=""/>
    <tripinfo id="veh289" depart="145.00" departLane="-40236144#3_1" departPos="17.16" departSpeed="0.00" departDelay="0.50" arrival="171.00" arrivalLane="859732801#1_1" arrivalPos="25.05" arrivalSpeed="11.77" duration="26.00" routeLength="226.88" waitingTime="0.00" waitingCount="0" stopTime="0.00" timeLoss="5.03" rerouteNo="0" devices="tripinfo_veh289" vType="passenger" speedFactor="0.85" vaporized=""/>
    <tripinfo id="veh175" depart="88.00" departLane="353939570#9_2" departPos="54.37" departSpeed="0.00" departDelay="0.50" arrival="174.00" arrivalLane="1250915721#1_1" arrivalPos="5.01" arrivalSpeed="5.18" duration="86.00" routeLength="721.64" waitingTime="0.00" waitingCount="0" stopTime="0.00" timeLoss="18.04" rerouteNo="0" devices="tripinfo_veh175" vType="delivery" speedFactor="1.03" vaporized=""/>
    <tripinfo id="veh210" depart="105.00" departLane="-48778472_1" departPos="39.42" departSpeed="0.00" departDelay="0.00" arrival="174.00" arrivalLane="-43546570#0_1" arrivalPos="43.31" arrivalSpeed="12.97" duration="69.00" routeLength="588.30" waitingTime="3.00" waitingCount="1" stopTime="0.00" timeLoss="21.89" rerouteNo="0" devices="tripinfo_veh210" vType="passenger" speedFactor="0.98" vaporized=""/>
    <tripinfo id="veh196" depart="98.00" departLane="1250915722#2_1" departPos="2.31" departSpeed="0.00" departDelay="0.00" arrival="176.00" arrivalLane="-353939570#2_1" arrivalPos="3.23" arrivalSpeed="13.73" duration="78.00" routeLength="645.73" waitingTime="0.00" waitingCount="0" stopTime="0.00" timeLoss="10.16" rerouteNo="0" devices="tripinfo_veh196" vType="passenger" speedFactor="1.04" vaporized=""/>
    <tripinfo id="veh45" depart="23.00" departLane="984521612#1_0" departPos="25.52" departSpeed="0.00" departDelay="0.50" arrival="177.00" arrivalLane="43544179#0_1" arrivalPos="36.12" arrivalSpeed="14.90" duration="154.00" routeLength="1560.97" waitingTime="11.00" waitingCount="1" stopTime="0.00" timeLoss="55.52" rerouteNo="0" devices="tripinfo_veh45" vType="passenger" speedFactor="1.17" vaporized=""/>
    <tripinfo id="veh89" depart="45.00" departLane="-354252035_1" departPos="90.83" departSpeed="0.00" departDelay="0.50" arrival="177.00" arrivalLane="48736645_1" arrivalPos="132.12" arrivalSpeed="10.83" duration="132.00" routeLength="1310.29" waitingTime="0.00" waitingCount="0" stopTime="0.00" timeLoss="18.94" rerouteNo="0" devices="tripinfo_veh89" vType="passenger" speedFactor="0.87" vaporized=""/>
    <tripinfo id="veh3" depart="2.00" departLane="-33910068#0_1" departPos="105.30" departSpeed="0.00" departDelay="0.50" arrival="178.00" arrivalLane="-1136119743#0_1" arrivalPos="24.46" arrivalSpeed="7.89" duration="176.00" routeLength="1772.27" waitingTime="23.00" waitingCount="1" stopTime="0.00" timeLoss="46.15" rerouteNo="0" devices="tripinfo_veh3" vType="passenger" speedFactor="1.08" vaporized=""/>
    <tripinfo id="veh53" depart="27.00" departLane="E13_1" departPos="9.89" departSpeed="0.00" departDelay="0.50" arrival="186.00" arrivalLane="995051712_1" arrivalPos="194.59" arrivalSpeed="14.84" duration="159.00" routeLength="1967.00" waitingTime="2.00" waitingCount="1" stopTime="0.00" timeLoss="30.32" rerouteNo="0" devices="tripinfo_veh53" vType="passenger" speedFactor="1.12" vaporized=""/>
    <tripinfo id="veh132" depart="68.00" departLane="40236146_1" departPos="180.32" departSpeed="0.00" departDelay="2.00" arrival="186.00" arrivalLane="-40269009#0_1" arrivalPos="20.68" arrivalSpeed="11.54" duration="118.00" routeLength="1010.22" waitingTime="0.00" waitingCount="0" stopTime="0.00" timeLoss="21.83" rerouteNo="0" devices="tripinfo_veh132" vType="passenger" speedFactor="0.88" vaporized=""/>
    <tripinfo id="veh91" depart="46.00" departLane="-40304754#5_1" departPos="105.01" departSpeed="0.00" departDelay="0.50" arrival="192.00" arrivalLane="-383582506_0" arrivalPos="44.83" arrivalSpeed="5.00" duration="146.00" routeLength="1685.36" waitingTime="0.00" waitingCount="0" stopTime="0.00" timeLoss="15.47" rerouteNo="0" devices="tripinfo_veh91" vType="delivery" speedFactor="1.01" vaporized=""/>
    <tripinfo id="veh141" depart="71.00" departLane="43546519#0_1" departPos="75.08" departSpeed="0.00" departDelay="0.50" arrival="194.00" arrivalLane="40236144#2_1" arrivalPos="51.61" arrivalSpeed="11.34" duration="123.00" routeLength="1262.97" waitingTime="0.00" waitingCount="0" stopTime="0.00" timeLoss="15.09" rerouteNo="0" devices="tripinfo_veh141" vType="passenger" speedFactor="0.87" vaporized=""/>
    <tripinfo id="veh204" depart="102.00" departLane="48736638#0_1" departPos="11.62" departSpeed="0.00" departDelay="0.00" arrival="194.00" arrivalLane="48778457#1_1" arrivalPos="25.26" arrivalSpeed="12.15" duration="92.00" routeLength="560.25" waitingTime="26.00" waitingCount="1" stopTime="0.00" timeLoss="50.74" rerouteNo="0" devices="tripinfo_veh204" vType="passenger" speedFactor="1.07" vaporized=""/>
    <tripinfo id="veh67" depart="34.00" departLane="40314583#2_1" departPos="74.27" departSpeed="0.00" departDelay="0.50" arrival="197.00" arrivalLane="48797767#0_1" arrivalPos="21.71" arrivalSpeed="10.47" duration="163.00" routeLength="1342.83" waitingTime="28.00" waitingCount="1" stopTime="0.00" timeLoss="63.37" rerouteNo="0" devices="tripinfo_veh67" vType="passenger" speedFactor="1.02" vaporized=""/>
    <tripinfo id="veh194" depart="97.00" departLane="-671642315_1" departPos="9.18" departSpeed="0.00" departDelay="0.00" arrival="197.00" arrivalLane="-383582509_0" arrivalPos="91.86" arrivalSpeed="4.94" duration="100.00" routeLength="1178.76" waitingTime="0.00" waitingCount="0" stopTime="0.00" timeLoss="9.56" rerouteNo="0" devices="tripinfo_veh194" vType="delivery" speedFactor="1.08" vaporized=""/>
    <tripinfo id="veh270" depart="135.00" departLane="-43547256#0_1" departPos="293.56" departSpeed="0.00" departDelay="0.00" arrival="199.00" arrivalLane="-43546053#1_1" arrivalPos="96.08" arrivalSpeed="11.80" duration="64.00" routeLength="662.88" waitingTime="0.00" waitingCount="0" stopTime="0.00" timeLoss="9.47" rerouteNo="0" devices="tripinfo_veh270" vType="passenger" speedFactor="0.90" vaporized=""/>
    <tripinfo id="veh95" depart="48.00" departLane="-1136289992_1" departPos="9.34" departSpeed="0.00" departDelay="0.50" arrival="200.00" arrivalLane="40236220#2_1" arrivalPos="24.83" arrivalSpeed="11.08" duration="152.00" routeLength="1663.86" waitingTime="11.00" waitingCount="1" stopTime="0.00" timeLoss="40.37" rerouteNo="0" devices="tripinfo_veh95" vType="passenger" speedFactor="1.13" vaporized=""/>
    <tripinfo id="veh197" depart="99.00" departLane="40299271_1" departPos="2.31" departSpeed="0.00" departDelay="0.50" arrival="203.00" arrivalLane="1364828571_0" arrivalPos="94.46" arrivalSpeed="4.34" duration="104.00" routeLength="905.95" waitingTime="0.00" waitingCount="0" stopTime="0.00" timeLoss="15.21" rerouteNo="0" devices="tripinfo_veh197" vType="passenger" speedFactor="0.89" vaporized=""/>
    <tripinfo id="veh183" depart="92.00" departLane="-43544046_1" departPos="95.78" departSpeed="0.00" departDelay="0.50" arrival="204.00" arrivalLane="48778522_1" arrivalPos="21.75" arrivalSpeed="5.58" duration="112.00" routeLength="610.73" waitingTime="0.00" waitingCount="0" stopTime="0.00" timeLoss="8.86" rerouteNo="0" devices="tripinfo_veh183" vType="bicycle" speedFactor="1.07" vaporized=""/>
    <tripinfo id="veh103" depart="52.00" departLane="92198452#1_1" departPos="9.59" departSpeed="0.00" departDelay="0.50" arrival="208.00" arrivalLane="-43544184#2_1" arrivalPos="44.27" arrivalSpeed="12.90" duration="156.00" routeLength="1370.01" waitingTime="21.00" waitingCount="1" stopTime="0.00" timeLoss="55.33" rerouteNo="0" devices="tripinfo_veh103" vType="passenger" speedFactor="1.00" vaporized=""/>
    <tripinfo id="veh13" depart="7.00" departLane="43544184#3_1" departPos="56.79" departSpeed="0.00" departDelay="0.50" arrival="210.00" arrivalLane="48788485#4_1" arrivalPos="201.27" arrivalSpeed="13.50" duration="203.00" routeLength="1108.88" waitingTime="98.00" waitingCount="1" stopTime="0.00" timeLoss="122.08" rerouteNo="0" devices="tripinfo_veh13" vType="passenger" speedFactor="1.04" vaporized=""/>
    <tripinfo id="veh25" depart="13.00" departLane="176279225#4_1" departPos="23.22" departSpeed="0.00" departDelay="0.50" arrival="210.00" arrivalLane="48736665_1" arrivalPos="14.66" arrivalSpeed="11.92" duration="197.00" routeLength="926.09" waitingTime="69.00" waitingCount="1" stopTime="0.00" timeLoss="94.52" rerouteNo="0" devices="tripinfo_veh25" vType="passenger" speedFactor="1.13" vaporized=""/>
    <tripinfo id="veh137" depart="69.00" departLane="48797774_1" departPos="33.02" departSpeed="0.00" departDelay="0.50" arrival="210.00" arrivalLane="40345956#0_1" arrivalPos="92.80" arrivalSpeed="12.51" duration="141.00" routeLength="936.91" waitingTime="0.00" waitingCount="0" stopTime="0.00" timeLoss="67.05" rerouteNo="0" devices="tripinfo_veh137" vType="passenger" speedFactor="0.97" vaporized=""/>
    <tripinfo id="veh118" depart="59.00" departLane="-859728622_0" departPos="163.11" departSpeed="0.00" departDelay="0.00" arrival="212.00" arrivalLane="40236259_1" arrivalPos="166.86" arrivalSpeed="13.46" duration="153.00" routeLength="1440.75" waitingTime="0.00" waitingCount="0" stopTime="0.00" timeLoss="28.93" rerouteNo="0" devices="tripinfo_veh118" vType="delivery" speedFactor="1.01" vaporized=""/>
    <tripinfo id="veh201" depart="101.00" departLane="-43546648#1_1" departPos="49.15" departSpeed="0.00" departDelay="0.50" arrival="217.00" arrivalLane="-304695350#0_1" arrivalPos="0.20" arrivalSpeed="5.79" duration="116.00" routeLength="1027.41" waitingTime="0.00" waitingCount="0" stopTime="0.00" timeLoss="26.05" rerouteNo="0" devices="tripinfo_veh201" vType="delivery" speedFactor="1.01" vaporized=""/>
    <tripinfo id="veh85" depart="43.00" departLane="353939585#2_1" departPos="19.31" departSpeed="0.00" departDelay="0.50" arrival="219.00" arrivalLane="48778480#5_1" arrivalPos="195.85" arrivalSpeed="7.37" duration="176.00" routeLength="1960.68" waitingTime="5.00" waitingCount="1" stopTime="0.00" timeLoss="36.40" rerouteNo="0" devices="tripinfo_veh85" vType="passenger" speedFactor="1.03" vaporized=""/>
    <tripinfo id="veh167" depart="84.00" departLane="43547579#4_1" departPos="139.37" departSpeed="0.00" departDelay="0.50" arrival="219.00" arrivalLane="222609002#1_1" arrivalPos="24.71" arrivalSpeed="13.08" duration="135.00" routeLength="1665.81" waitingTime="0.00" waitingCount="0" stopTime="0.00" timeLoss="17.33" rerouteNo="0" devices="tripinfo_veh167" vType="passenger" speedFactor="1.03" vaporized=""/>
    <tripinfo id="veh164" depart="82.00" departLane="-945793490#5_1" departPos="62.60" departSpeed="0.00" departDelay="0.00" arrival="221.00" arrivalLane="40334244#3_1" arrivalPos="176.79" arrivalSpeed="14.04" duration="139.00" routeLength="1108.83" waitingTime="1.00" waitingCount="1" stopTime="0.00" timeLoss="28.85" rerouteNo="0" devices="tripinfo_veh164" vType="passenger" speedFactor="1.04" vaporized=""/>
    <tripinfo id="veh169" depart="85.00" departLane="-48736645_1" departPos="15.89" departSpeed="0.00" departDelay="0.50" arrival="221.00" arrivalLane="-647347140#1_1" arrivalPos="28.09" arrivalSpeed="14.47" duration="136.00" routeLength="1467.07" waitingTime="0.00" waitingCount="0" stopTime="0.00" timeLoss="33.59" rerouteNo="0" devices="tripinfo_veh169" vType="passenger" speedFactor="1.07" vaporized=""/>
    <tripinfo id="veh181" depart="91.00" departLane="-647621857_0" departPos="22.94" departSpeed="0.00" departDelay="0.50" arrival="222.00" arrivalLane="-174818022#0_0" arrivalPos="26.26" arrivalSpeed="4.29" duration="131.00" routeLength="1017.65" waitingTime="0.00" waitingCount="0" stopTime="0.00" timeLoss="19.50" rerouteNo="0" devices="tripinfo_veh181" vType="passenger" speedFactor="0.97" vaporized=""/>
    <tripinfo id="veh223" depart="112.00" departLane="1054663939_1" departPos="4.77" departSpeed="0.00" departDelay="0.50" arrival="222.00" arrivalLane="48797773_1" arrivalPos="23.80" arrivalSpeed="12.21" duration="110.00" routeLength="869.63" waitingTime="14.00" waitingCount="1" stopTime="0.00" timeLoss="48.24" rerouteNo="0" devices="tripinfo_veh223" vType="delivery" speedFactor="1.13" vaporized=""/>
    <tripinfo id="veh216" depart="108.00" departLane="945794108_1" departPos="15.55" departSpeed="0.00" departDelay="0.00" arrival="223.00" arrivalLane="-48778520_1" arrivalPos="53.92" arrivalSpeed="14.95" duration="115.00" routeLength="1058.15" waitingTime="9.00" waitingCount="2" stopTime="0.00" timeLoss="42.81" rerouteNo="0" devices="tripinfo_veh216" vType="passenger" speedFactor="1.12" vaporized=""/>
    <tripinfo id="veh74" depart="37.00" departLane="-43544588#1_1" departPos="20.89" departSpeed="0.00" departDelay="0.00" arrival="224.00" arrivalLane="353939585#1_2" arrivalPos="304.47" arrivalSpeed="14.51" duration="187.00" routeLength="1947.63" waitingTime="10.00" waitingCount="1" stopTime="0.00" timeLoss="46.46" rerouteNo="0" devices="tripinfo_veh74" vType="passenger" speedFactor="1.05" vaporized=""/>
    <tripinfo id="veh240" depart="120.00" departLane="-43573547#1_1" departPos="0.27" departSpeed="0.00" departDelay="0.00" arrival="225.00" arrivalLane="354259933#1_1" arrivalPos="32.06" arrivalSpeed="14.05" duration="105.00" routeLength="781.10" waitingTime="27.00" waitingCount="3" stopTime="0.00" timeLoss="46.62" rerouteNo="0" devices="tripinfo_veh240" vType="passenger" speedFactor="1.02" vaporized=""/>
    <tripinfo id="veh386" depart="193.00" departLane="48736656#3_1" departPos="95.03" departSpeed="0.00" departDelay="0.00" arrival="225.00" arrivalLane="-48736612#2_1" arrivalPos="52.68" arrivalSpeed="14.85" duration="32.00" routeLength="323.30" waitingTime="0.00" waitingCount="0" stopTime="0.00" timeLoss="8.67" rerouteNo="0" devices="tripinfo_veh386" vType="passenger" speedFactor="1.10" vaporized=""/>
    <tripinfo id="veh16" depart="8.00" departLane="-470210923#1_2" departPos="99.52" departSpeed="0.00" departDelay="0.00" arrival="227.00" arrivalLane="48797765#1_1" arrivalPos="28.98" arrivalSpeed="12.87" duration="219.00" routeLength="506.84" waitingTime="165.00" waitingCount="1" stopTime="0.00" timeLoss="180.48" rerouteNo="0" devices="tripinfo_veh16" vType="emergency" speedFactor="1.00" vaporized=""/>
    <tripinfo id="veh102" depart="51.00" departLane="43544001#2_1" departPos="11.01" departSpeed="0.00" departDelay="0.00" arrival="228.00" arrivalLane="984508803_0" arrivalPos="20.97" arrivalSpeed="4.85" duration="177.00" routeLength="2059.69" waitingTime="0.00" waitingCount="0" stopTime="0.00" timeLoss="25.62" rerouteNo="0" devices="tripinfo_veh102" vType="passenger" speedFactor="1.03" vaporized=""/>
    <tripinfo id="veh238" depart="119.00" departLane="43547017#3_1" departPos="11.23" departSpeed="0.00" departDelay="0.00" arrival="230.00" arrivalLane="-43546105#0_1" arrivalPos="198.99" arrivalSpeed="10.13" duration="111.00" routeLength="1209.98" waitingTime="0.00" waitingCount="0" stopTime="0.00" timeLoss="17.31" rerouteNo="0" devices="tripinfo_veh238" vType="motorcycle" speedFactor="0.94" vaporized=""/>
    <tripinfo id="veh300" depart="150.00" departLane="48778500#1_1" departPos="40.96" departSpeed="0.00" departDelay="0.00" arrival="230.00" arrivalLane="48778508#2_1" arrivalPos="0.60" arrivalSpeed="13.70" duration="80.00" routeLength="598.72" waitingTime="6.00" waitingCount="1" stopTime="0.00" timeLoss="32.12" rerouteNo="0" devices="tripinfo_veh300" vType="delivery" speedFactor="1.01" vaporized=""/>
    <tripinfo id="veh370" depart="185.00" departLane="-48778485#1_1" departPos="6.73" departSpeed="0.00" departDelay="0.00" arrival="231.00" arrivalLane="859734514#1_0" arrivalPos="56.51" arrivalSpeed="4.65" duration="46.00" routeLength="307.61" waitingTime="0.00" waitingCount="0" stopTime="0.00" timeLoss="12.43" rerouteNo="0" devices="tripinfo_veh370" vType="passenger" speedFactor="1.06" vaporized=""/>
    <tripinfo id="veh104" depart="52.00" departLane="859726677#0_1" departPos="10.68" departSpeed="0.00" departDelay="0.00" arrival="232.00" arrivalLane="994065253_0" arrivalPos="79.67" arrivalSpeed="5.71" duration="180.00" routeLength="2283.33" waitingTime="0.00" waitingCount="0" stopTime="0.00" timeLoss="18.10" rerouteNo="0" devices="tripinfo_veh104" vType="passenger" speedFactor="1.12" vaporized=""/>
    <tripinfo id="veh168" depart="84.00" departLane="250295380#1_1" departPos="91.26" departSpeed="0.00" departDelay="0.00" arrival="232.00" arrivalLane="-383582503_0" arrivalPos="105.76" arrivalSpeed="4.79" duration="148.00" routeLength="1274.94" waitingTime="24.00" waitingCount="1" stopTime="0.00" timeLoss="41.87" rerouteNo="0" devices="tripinfo_veh168" vType="emergency" speedFactor="1.00" vaporized=""/>
    <tripinfo id="veh4" depart="2.00" departLane="-258551317_1" departPos="3.77" departSpeed="0.00" departDelay="0.00" arrival="233.00" arrivalLane="-223883702_1" arrivalPos="271.06" arrivalSpeed="12.35" duration="231.00" routeLength="2299.56" waitingTime="0.00" waitingCount="0" stopTime="0.00" timeLoss="45.48" rerouteNo="0" devices="tripinfo_veh4" vType="passenger" speedFactor="0.94" vaporized=""/>