<?xml version="1.0" encoding="UTF-8"?>

<!-- generated on 2025-06-12 11:52:24 by Eclipse SUMO sumo Version 1.22.0
<sumoConfiguration xmlns:xsi="http://www.w3.org/2001/XMLSchema-instance" xsi:noNamespaceSchemaLocation="http://sumo.dlr.de/xsd/sumoConfiguration.xsd">

    <input>
        <net-file value="E:/licenta/oras-mediu/2025-06-05-11-45-23/osm.net.xml"/>
        <route-files value="E:/licenta/oras-mediu/2025-06-05-11-45-23/full.rou.xml,E:/licenta/oras-mediu/2025-06-05-11-45-23/ ped.rou.xml,E:/licenta/oras-mediu/2025-06-05-11-45-23/ truck.rou.xml"/>
        <additional-files value="E:/licenta/oras-mediu/2025-06-05-11-45-23/osm.poly.xml,E:/licenta/oras-mediu/2025-06-05-11-45-23/ vtypes.xml"/>
    </input>

    <output>
        <summary-output value="E:/licenta/oras-mediu/2025-06-05-11-45-23/summary.xml"/>
        <tripinfo-output value="E:/licenta/oras-mediu/2025-06-05-11-45-23/tripinfo.xml"/>
    </output>

    <processing>
        <ignore-route-errors value="true"/>
        <tls.actuated.jam-threshold value="30"/>
    </processing>

    <routing>
        <device.rerouting.adaptation-steps value="18"/>
        <device.rerouting.adaptation-interval value="10"/>
    </routing>

    <report>
        <verbose value="true"/>
        <duration-log.statistics value="true"/>
        <no-step-log value="true"/>
    </report>

    <traci_server>
        <remote-port value="63452"/>
    </traci_server>

    <gui_only>
        <gui-settings-file value="E:/licenta/oras-mediu/2025-06-05-11-45-23/osm.view.xml"/>
    </gui_only>

</sumoConfiguration>
-->

<tripinfos xmlns:xsi="http://www.w3.org/2001/XMLSchema-instance" xsi:noNamespaceSchemaLocation="http://sumo.dlr.de/xsd/tripinfo_file.xsd">
    <tripinfo id="veh13" depart="10.00" departLane="-48778515_1" departPos="7.79" departSpeed="0.00" departDelay="0.90" arrival="47.00" arrivalLane="48788485#7_1" arrivalPos="131.11" arrivalSpeed="12.76" duration="37.00" routeLength="372.25" waitingTime="0.00" waitingCount="0" stopTime="0.00" timeLoss="8.35" rerouteNo="0" devices="tripinfo_veh13" vType="emergency" speedFactor="1.00" vaporized=""/>
    <personinfo id="ped5" depart="25.00" type="DEFAULT_PEDTYPE" speedFactor="0.96" duration="29.00" waitingTime="0.00" timeLoss="3.76" traveltime="29.00">
        <walk depart="25.00" departPos="0.00" arrival="54.00" arrivalPos="28.61" duration="29.00" routeLength="33.66" timeLoss="3.76" maxSpeed="1.33"/>
    </personinfo>
    <tripinfo id="veh22" depart="16.00" departLane="-647640187_0" departPos="67.57" departSpeed="0.00" departDelay="0.60" arrival="77.00" arrivalLane="-48797767#0_1" arrivalPos="21.72" arrivalSpeed="11.15" duration="61.00" routeLength="669.72" waitingTime="0.00" waitingCount="0" stopTime="0.00" timeLoss="14.50" rerouteNo="0" devices="tripinfo_veh22" vType="passenger" speedFactor="1.13" vaporized=""/>
    <tripinfo id="veh67" depart="47.00" departLane="-48736620#2_2" departPos="30.63" departSpeed="0.00" departDelay="0.10" arrival="79.00" arrivalLane="-48736611#1_1" arrivalPos="4.90" arrivalSpeed="7.00" duration="32.00" routeLength="267.29" waitingTime="0.00" waitingCount="0" stopTime="0.00" timeLoss="8.90" rerouteNo="0" devices="tripinfo_veh67" vType="passenger" speedFactor="0.98" vaporized=""/>
    <tripinfo id="veh32" depart="23.00" departLane="-48797774_1" departPos="10.43" departSpeed="0.00" departDelay="0.60" arrival="84.00" arrivalLane="43573573#0_1" arrivalPos="20.39" arrivalSpeed="10.75" duration="61.00" routeLength="630.02" waitingTime="0.00" waitingCount="0" stopTime="0.00" timeLoss="14.11" rerouteNo="0" devices="tripinfo_veh32" vType="passenger" speedFactor="1.03" vaporized=""/>
    <tripinfo id="veh1" depart="1.00" departLane="-43544184#3_1" departPos="3.37" departSpeed="0.00" departDelay="0.30" arrival="92.00" arrivalLane="354252043_1" arrivalPos="59.61" arrivalSpeed="14.58" duration="91.00" routeLength="1081.32" waitingTime="0.00" waitingCount="0" stopTime="0.00" timeLoss="15.53" rerouteNo="0" devices="tripinfo_veh1" vType="passenger" speedFactor="1.08" vaporized=""/>
    <tripinfo id="veh77" depart="54.00" departLane="40334245#2_1" departPos="1.55" departSpeed="0.00" departDelay="0.10" arrival="93.00" arrivalLane="40334245#1_1" arrivalPos="44.54" arrivalSpeed="12.97" duration="39.00" routeLength="365.87" waitingTime="0.00" waitingCount="0" stopTime="0.00" timeLoss="9.95" rerouteNo="0" devices="tripinfo_veh77" vType="emergency" speedFactor="1.00" vaporized=""/>
    <tripinfo id="veh111" depart="78.00" departLane="48778500#2_1" departPos="210.22" departSpeed="0.00" departDelay="0.30" arrival="105.00" arrivalLane="-264868325_1" arrivalPos="96.14" arrivalSpeed="13.32" duration="27.00" routeLength="203.51" waitingTime="0.00" waitingCount="0" stopTime="0.00" timeLoss="9.58" rerouteNo="0" devices="tripinfo_veh111" vType="passenger" speedFactor="1.02" vaporized=""/>
    <tripinfo id="veh47" depart="33.00" departLane="-43544197#2_1" departPos="14.11" departSpeed="0.00" departDelay="0.10" arrival="107.00" arrivalLane="43544001#8_1" arrivalPos="45.27" arrivalSpeed="12.92" duration="74.00" routeLength="749.85" waitingTime="0.00" waitingCount="0" stopTime="0.00" timeLoss="16.58" rerouteNo="0" devices="tripinfo_veh47" vType="passenger" speedFactor="1.00" vaporized=""/>
    <tripinfo id="veh75" depart="53.00" departLane="-304695350#1_1" departPos="150.66" departSpeed="0.00" departDelay="0.50" arrival="107.00" arrivalLane="-48736641_1" arrivalPos="16.88" arrivalSpeed="10.37" duration="54.00" routeLength="529.94" waitingTime="0.00" waitingCount="0" stopTime="0.00" timeLoss="13.30" rerouteNo="0" devices="tripinfo_veh75" vType="passenger" speedFactor="1.14" vaporized=""/>
    <tripinfo id="veh79" depart="56.00" departLane="-48778521#1_1" departPos="19.16" departSpeed="0.00" departDelay="0.70" arrival="108.00" arrivalLane="-43544046_1" arrivalPos="104.31" arrivalSpeed="13.63" duration="52.00" routeLength="484.90" waitingTime="0.00" waitingCount="0" stopTime="0.00" timeLoss="11.34" rerouteNo="0" devices="tripinfo_veh79" vType="passenger" speedFactor="1.06" vaporized=""/>
    <tripinfo id="veh88" depart="62.00" departLane="-43544001#9_1" departPos="88.88" departSpeed="0.00" departDelay="0.40" arrival="108.00" arrivalLane="-43544624#1_1" arrivalPos="93.66" arrivalSpeed="13.03" duration="46.00" routeLength="512.21" waitingTime="0.00" waitingCount="0" stopTime="0.00" timeLoss="7.98" rerouteNo="0" devices="tripinfo_veh88" vType="delivery" speedFactor="1.01" vaporized=""/>
    <tripinfo id="veh81" depart="57.00" departLane="-43547017#2_1" departPos="23.92" departSpeed="0.00" departDelay="0.30" arrival="110.00" arrivalLane="48778524#3_1" arrivalPos="28.26" arrivalSpeed="14.23" duration="53.00" routeLength="618.11" waitingTime="0.00" waitingCount="0" stopTime="0.00" timeLoss="10.18" rerouteNo="0" devices="tripinfo_veh81" vType="passenger" speedFactor="1.08" vaporized=""/>
    <tripinfo id="veh105" depart="74.00" departLane="-40330557#0_1" departPos="49.55" departSpeed="0.00" departDelay="0.50" arrival="111.00" arrivalLane="222605084#3_1" arrivalPos="1.85" arrivalSpeed="4.93" duration="37.00" routeLength="193.58" waitingTime="0.00" waitingCount="0" stopTime="0.00" timeLoss="6.11" rerouteNo="0" devices="tripinfo_veh105" vType="passenger" speedFactor="1.03" vaporized=""/>
    <tripinfo id="veh59" depart="42.00" departLane="43544001#8_1" departPos="24.66" departSpeed="0.00" departDelay="0.70" arrival="117.00" arrivalLane="43544179#6_1" arrivalPos="35.50" arrivalSpeed="13.72" duration="75.00" routeLength="852.21" waitingTime="0.00" waitingCount="0" stopTime="0.00" timeLoss="17.33" rerouteNo="0" devices="tripinfo_veh59" vType="passenger" speedFactor="1.12" vaporized=""/>
    <tripinfo id="veh44" depart="31.00" departLane="-470210923#1_2" departPos="0.13" departSpeed="0.00" departDelay="0.20" arrival="118.00" arrivalLane="-43573478_1" arrivalPos="180.41" arrivalSpeed="11.70" duration="87.00" routeLength="868.29" waitingTime="0.00" waitingCount="0" stopTime="0.00" timeLoss="14.48" rerouteNo="0" devices="tripinfo_veh44" vType="motorcycle" speedFactor="0.90" vaporized=""/>
    <personinfo id="ped14" depart="70.00" type="DEFAULT_PEDTYPE" speedFactor="1.12" duration="50.00" waitingTime="0.00" timeLoss="5.85" traveltime="50.00">
        <walk depart="70.00" departPos="0.00" arrival="120.00" arrivalPos="18.15" duration="50.00" routeLength="68.57" timeLoss="5.85" maxSpeed="1.55"/>
    </personinfo>
    <personinfo id="ped6" depart="30.00" type="DEFAULT_PEDTYPE" speedFactor="0.95" duration="95.00" waitingTime="0.00" timeLoss="11.38" traveltime="95.00">
        <walk depart="30.00" departPos="0.00" arrival="125.00" arrivalPos="8.93" duration="95.00" routeLength="110.45" timeLoss="11.38" maxSpeed="1.32"/>
    </personinfo>
    <tripinfo id="veh45" depart="32.00" departLane="33913538#9_2" departPos="27.90" departSpeed="0.00" departDelay="0.50" arrival="133.00" arrivalLane="48736623_1" arrivalPos="129.63" arrivalSpeed="12.94" duration="101.00" routeLength="892.60" waitingTime="19.00" waitingCount="1" stopTime="0.00" timeLoss="33.39" rerouteNo="0" devices="tripinfo_veh45" vType="delivery" speedFactor="0.98" vaporized=""/>
    <tripinfo id="veh26" depart="19.00" departLane="-40295499#0_1" departPos="60.45" departSpeed="0.00" departDelay="0.80" arrival="137.00" arrivalLane="48736665_1" arrivalPos="14.66" arrivalSpeed="9.79" duration="118.00" routeLength="1353.97" waitingTime="0.00" waitingCount="0" stopTime="0.00" timeLoss="16.06" rerouteNo="0" devices="tripinfo_veh26" vType="passenger" speedFactor="0.99" vaporized=""/>
    <tripinfo id="veh153" depart="108.00" departLane="48736613#4_1" departPos="13.84" departSpeed="0.00" departDelay="0.90" arrival="145.00" arrivalLane="48778456#1_1" arrivalPos="114.05" arrivalSpeed="15.78" duration="37.00" routeLength="379.87" waitingTime="0.00" waitingCount="0" stopTime="0.00" timeLoss="11.65" rerouteNo="0" devices="tripinfo_veh153" vType="passenger" speedFactor="1.18" vaporized=""/>
    <tripinfo id="veh104" depart="73.00" departLane="-251916699#0_1" departPos="14.18" departSpeed="0.00" departDelay="0.20" arrival="146.00" arrivalLane="251916699#2_1" arrivalPos="25.25" arrivalSpeed="7.04" duration="73.00" routeLength="348.77" waitingTime="21.00" waitingCount="1" stopTime="0.00" timeLoss="38.58" rerouteNo="0" devices="tripinfo_veh104" vType="motorcycle" speedFactor="1.10" vaporized=""/>
    <personinfo id="ped3" depart="15.00" type="DEFAULT_PEDTYPE" speedFactor="0.98" duration="132.00" waitingTime="0.00" timeLoss="15.62" traveltime="132.00">
        <walk depart="15.00" departPos="0.00" arrival="147.00" arrivalPos="5.29" duration="132.00" routeLength="157.75" timeLoss="15.62" maxSpeed="1.36"/>
    </personinfo>
    <tripinfo id="veh42" depart="30.00" departLane="-43544179#2_1" departPos="109.38" departSpeed="0.00" departDelay="0.60" arrival="149.00" arrivalLane="-1135855898_0" arrivalPos="54.52" arrivalSpeed="4.99" duration="119.00" routeLength="1207.32" waitingTime="0.00" waitingCount="0" stopTime="0.00" timeLoss="22.41" rerouteNo="0" devices="tripinfo_veh42" vType="motorcycle" speedFactor="1.00" vaporized=""/>
    <tripinfo id="veh54" depart="38.00" departLane="43544179#2_1" departPos="82.39" departSpeed="0.00" departDelay="0.20" arrival="150.00" arrivalLane="1378376381_2" arrivalPos="160.13" arrivalSpeed="13.12" duration="112.00" routeLength="1224.96" waitingTime="0.00" waitingCount="0" stopTime="0.00" timeLoss="16.68" rerouteNo="0" devices="tripinfo_veh54" vType="passenger" speedFactor="0.95" vaporized=""/>
    <tripinfo id="veh94" depart="66.00" departLane="-1135854210_1" departPos="8.06" departSpeed="0.00" departDelay="0.20" arrival="150.00" arrivalLane="470210923#2_1" arrivalPos="56.87" arrivalSpeed="11.80" duration="84.00" routeLength="855.41" waitingTime="5.00" waitingCount="1" stopTime="0.00" timeLoss="18.06" rerouteNo="0" devices="tripinfo_veh94" vType="motorcycle" speedFactor="0.98" vaporized=""/>
    <tripinfo id="veh5" depart="4.00" departLane="1136301813_1" departPos="13.46" departSpeed="0.00" departDelay="0.50" arrival="151.00" arrivalLane="-E9_1" arrivalPos="42.23" arrivalSpeed="14.38" duration="147.00" routeLength="1073.79" waitingTime="34.00" waitingCount="2" stopTime="0.00" timeLoss="66.23" rerouteNo="0" devices="tripinfo_veh5" vType="delivery" speedFactor="1.05" vaporized=""/>
    <tripinfo id="veh184" depart="129.00" departLane="1250915720#1_1" departPos="1.89" departSpeed="0.00" departDelay="0.20" arrival="151.00" arrivalLane="-1251292611_1" arrivalPos="3.48" arrivalSpeed="5.39" duration="22.00" routeLength="105.00" waitingTime="0.00" waitingCount="0" stopTime="0.00" timeLoss="3.49" rerouteNo="0" devices="tripinfo_veh184" vType="passenger" speedFactor="1.06" vaporized=""/>
    <tripinfo id="veh160" depart="112.00" departLane="-43544179#6_1" departPos="26.43" departSpeed="0.00" departDelay="0.00" arrival="152.00" arrivalLane="43545645#1_1" arrivalPos="98.66" arrivalSpeed="14.82" duration="40.00" routeLength="462.53" waitingTime="0.00" waitingCount="0" stopTime="0.00" timeLoss="9.34" rerouteNo="0" devices="tripinfo_veh160" vType="passenger" speedFactor="1.15" vaporized=""/>
    <tripinfo id="veh101" depart="71.00" departLane="-859729931_0" departPos="82.79" departSpeed="0.00" departDelay="0.30" arrival="159.00" arrivalLane="-43546519#2_1" arrivalPos="8.00" arrivalSpeed="9.19" duration="88.00" routeLength="931.21" waitingTime="0.00" waitingCount="0" stopTime="0.00" timeLoss="15.57" rerouteNo="0" devices="tripinfo_veh101" vType="passenger" speedFactor="1.00" vaporized=""/>
    <tripinfo id="veh3" depart="3.00" departLane="222609004#1_1" departPos="43.63" departSpeed="0.00" departDelay="0.90" arrival="162.00" arrivalLane="48778456#0_1" arrivalPos="27.19" arrivalSpeed="11.19" duration="159.00" routeLength="1395.67" waitingTime="15.00" waitingCount="2" stopTime="0.00" timeLoss="44.82" rerouteNo="0" devices="tripinfo_veh3" vType="passenger" speedFactor="0.94" vaporized=""/>
    <tripinfo id="veh6" depart="5.00" departLane="1136283381_1" departPos="15.36" departSpeed="0.00" departDelay="0.80" arrival="163.00" arrivalLane="-647762524_1" arrivalPos="48.75" arrivalSpeed="11.82" duration="158.00" routeLength="1321.88" waitingTime="0.00" waitingCount="0" stopTime="0.00" timeLoss="28.08" rerouteNo="0" devices="tripinfo_veh6" vType="passenger" speedFactor="0.92" vaporized=""/>
    <personinfo id="ped26" depart="130.00" type="DEFAULT_PEDTYPE" speedFactor="1.08" duration="36.00" waitingTime="0.00" timeLoss="5.92" traveltime="36.00">
        <walk depart="130.00" departPos="0.00" arrival="166.00" arrivalPos="0.18" duration="36.00" routeLength="45.11" timeLoss="5.92" maxSpeed="1.50"/>
    </personinfo>
    <tripinfo id="veh121" depart="85.00" departLane="-492965073#6_2" departPos="0.35" departSpeed="0.00" departDelay="0.30" arrival="173.00" arrivalLane="984521613_0" arrivalPos="62.42" arrivalSpeed="5.24" duration="88.00" routeLength="642.14" waitingTime="19.00" waitingCount="1" stopTime="0.00" timeLoss="34.73" rerouteNo="0" devices="tripinfo_veh121" vType="passenger" speedFactor="1.07" vaporized=""/>
    <tripinfo id="veh50" depart="35.00" departLane="996984133_1" departPos="14.63" departSpeed="0.00" departDelay="0.00" arrival="176.00" arrivalLane="-1136301819_1" arrivalPos="13.82" arrivalSpeed="9.75" duration="141.00" routeLength="1495.66" waitingTime="0.00" waitingCount="0" stopTime="0.00" timeLoss="23.98" rerouteNo="0" devices="tripinfo_veh50" vType="delivery" speedFactor="0.99" vaporized=""/>
    <tripinfo id="veh69" depart="49.00" departLane="92198453#1_1" departPos="6.09" departSpeed="0.00" departDelay="0.70" arrival="184.00" arrivalLane="-647755347#0_1" arrivalPos="70.01" arrivalSpeed="12.27" duration="135.00" routeLength="1441.74" waitingTime="0.00" waitingCount="0" stopTime="0.00" timeLoss="21.71" rerouteNo="0" devices="tripinfo_veh69" vType="motorcycle" speedFactor="0.94" vaporized=""/>
    <tripinfo id="truck4" depart="2.00" departLane="33913538#0_1" departPos="12.10" departSpeed="0.00" departDelay="0.00" arrival="187.00" arrivalLane="-33913538#0_1" arrivalPos="152.84" arrivalSpeed="13.49" duration="185.00" routeLength="2252.76" waitingTime="0.00" waitingCount="0" stopTime="0.00" timeLoss="20.36" rerouteNo="0" devices="tripinfo_truck4" vType="truck" speedFactor="1.02" vaporized=""/>
    <tripinfo id="veh173" depart="122.00" departLane="-40345956#2_1" departPos="11.73" departSpeed="0.00" departDelay="0.90" arrival="188.00" arrivalLane="40330557#2_1" arrivalPos="100.16" arrivalSpeed="13.32" duration="66.00" routeLength="705.77" waitingTime="0.00" waitingCount="0" stopTime="0.00" timeLoss="13.64" rerouteNo="0" devices="tripinfo_veh173" vType="delivery" speedFactor="1.03" vaporized=""/>
    <tripinfo id="veh27" depart="19.00" departLane="33913538#8_1" departPos="0.68" departSpeed="0.00" departDelay="0.10" arrival="190.00" arrivalLane="-945794108_1" arrivalPos="20.90" arrivalSpeed="7.32" duration="171.00" routeLength="2003.23" waitingTime="0.00" waitingCount="0" stopTime="0.00" timeLoss="18.19" rerouteNo="0" devices="tripinfo_veh27" vType="passenger" speedFactor="0.97" vaporized=""/>
    <tripinfo id="veh17" depart="12.00" departLane="-176279225#1_2" departPos="2.29" departSpeed="0.00" departDelay="0.10" arrival="192.00" arrivalLane="43547579#4_1" arrivalPos="247.27" arrivalSpeed="7.96" duration="180.00" routeLength="2146.10" waitingTime="0.00" waitingCount="0" stopTime="0.00" timeLoss="22.93" rerouteNo="0" devices="tripinfo_veh17" vType="passenger" speedFactor="1.01" vaporized=""/>
    <tripinfo id="veh156" depart="110.00" departLane="1136017144_0" departPos="5.88" departSpeed="0.00" departDelay="0.80" arrival="198.00" arrivalLane="E26_1" arrivalPos="166.60" arrivalSpeed="13.96" duration="88.00" routeLength="722.24" waitingTime="0.00" waitingCount="0" stopTime="0.00" timeLoss="12.86" rerouteNo="0" devices="tripinfo_veh156" vType="passenger" speedFactor="1.07" vaporized=""/>
    <tripinfo id="veh4" depart="3.00" departLane="43545645#1_1" departPos="24.42" departSpeed="0.00" departDelay="0.20" arrival="200.00" arrivalLane="-92198453#6_1" arrivalPos="74.13" arrivalSpeed="13.04" duration="197.00" routeLength="2301.77" waitingTime="0.00" waitingCount="0" stopTime="0.00" timeLoss="28.62" rerouteNo="0" devices="tripinfo_veh4" vType="passenger" speedFactor="1.02" vaporized=""/>
    <tripinfo id="veh70" depart="49.00" departLane="-48778514#2_1" departPos="105.58" departSpeed="0.00" departDelay="0.00" arrival="201.00" arrivalLane="-43546064#1_1" arrivalPos="98.05" arrivalSpeed="11.58" duration="152.00" routeLength="1438.14" waitingTime="0.00" waitingCount="0" stopTime="0.00" timeLoss="22.40" rerouteNo="0" devices="tripinfo_veh70" vType="passenger" speedFactor="0.83" vaporized=""/>
    <tripinfo id="veh63" depart="45.00" departLane="48797771#0_1" departPos="10.54" departSpeed="0.00" departDelay="0.90" arrival="202.00" arrivalLane="48736614#3_1" arrivalPos="117.48" arrivalSpeed="11.43" duration="157.00" routeLength="1509.37" waitingTime="9.00" waitingCount="1" stopTime="0.00" timeLoss="31.94" rerouteNo="0" devices="tripinfo_veh63" vType="passenger" speedFactor="0.90" vaporized=""/>
    <tripinfo id="veh209" depart="147.00" departLane="43545645#2_1" departPos="201.99" departSpeed="0.00" departDelay="0.70" arrival="203.00" arrivalLane="48778479_1" arrivalPos="433.06" arrivalSpeed="13.56" duration="56.00" routeLength="661.08" waitingTime="0.00" waitingCount="0" stopTime="0.00" timeLoss="7.67" rerouteNo="0" devices="tripinfo_veh209" vType="passenger" speedFactor="1.01" vaporized=""/>
    <tripinfo id="veh85" depart="60.00" departLane="-671642329#1_1" departPos="166.37" departSpeed="0.00" departDelay="0.50" arrival="205.00" arrivalLane="-33913538#3_1" arrivalPos="4.38" arrivalSpeed="17.22" duration="145.00" routeLength="2173.53" waitingTime="0.00" waitingCount="0" stopTime="0.00" timeLoss="18.29" rerouteNo="0" devices="tripinfo_veh85" vType="passenger" speedFactor="1.25" vaporized=""/>
    <tripinfo id="veh97" depart="68.00" departLane="1050436320_0" departPos="117.63" departSpeed="0.00" departDelay="0.10" arrival="206.00" arrivalLane="-48736637_1" arrivalPos="17.08" arrivalSpeed="11.24" duration="138.00" routeLength="906.62" waitingTime="14.00" waitingCount="2" stopTime="0.00" timeLoss="40.28" rerouteNo="0" devices="tripinfo_veh97" vType="passenger" speedFactor="1.02" vaporized=""/>
    <personinfo id="ped16" depart="80.00" type="DEFAULT_PEDTYPE" speedFactor="1.00" duration="127.00" waitingTime="0.00" timeLoss="30.14" traveltime="127.00">
        <walk depart="80.00" departPos="0.00" arrival="207.00" arrivalPos="2.54" duration="127.00" routeLength="133.96" timeLoss="30.14" maxSpeed="1.38"/>
    </personinfo>
    <tripinfo id="veh165" depart="116.00" departLane="-43544138#3_1" departPos="4.25" departSpeed="0.00" departDelay="0.50" arrival="208.00" arrivalLane="43547017#0_1" arrivalPos="89.49" arrivalSpeed="14.12" duration="92.00" routeLength="944.47" waitingTime="2.00" waitingCount="1" stopTime="0.00" timeLoss="23.22" rerouteNo="0" devices="tripinfo_veh165" vType="passenger" speedFactor="1.03" vaporized=""/>
    <tripinfo id="veh168" depart="118.00" departLane="383582494_0" departPos="76.22" departSpeed="0.00" departDelay="0.40" arrival="209.00" arrivalLane="994065253_0" arrivalPos="79.67" arrivalSpeed="4.55" duration="91.00" routeLength="673.11" waitingTime="0.00" waitingCount="0" stopTime="0.00" timeLoss="13.86" rerouteNo="0" devices="tripinfo_veh168" vType="emergency" speedFactor="1.00" vaporized=""/>
    <tripinfo id="veh66" depart="47.00" departLane="48778498#2_1" departPos="87.32" departSpeed="0.00" departDelay="0.80" arrival="211.00" arrivalLane="43544197#2_1" arrivalPos="42.39" arrivalSpeed="12.71" duration="164.00" routeLength="1727.85" waitingTime="0.00" waitingCount="0" stopTime="0.00" timeLoss="29.71" rerouteNo="0" devices="tripinfo_veh66" vType="passenger" speedFactor="0.98" vaporized=""/>
    <tripinfo id="veh76" depart="54.00" departLane="-492965073#5_1" departPos="23.15" departSpeed="0.00" departDelay="0.80" arrival="211.00" arrivalLane="43546789#2_1" arrivalPos="71.56" arrivalSpeed="14.08" duration="157.00" routeLength="1625.22" waitingTime="15.00" waitingCount="2" stopTime="0.00" timeLoss="46.96" rerouteNo="0" devices="tripinfo_veh76" vType="passenger" speedFactor="1.10" vaporized=""/>
    <tripinfo id="veh126" depart="89.00" departLane="33909936#3_1" departPos="23.90" departSpeed="0.00" departDelay="0.80" arrival="211.00" arrivalLane="40330575#1_1" arrivalPos="3.63" arrivalSpeed="11.34" duration="122.00" routeLength="837.06" waitingTime="34.00" waitingCount="2" stopTime="0.00" timeLoss="52.66" rerouteNo="0" devices="tripinfo_veh126" vType="passenger" speedFactor="0.91" vaporized=""/>
    <tripinfo id="veh157" depart="110.00" departLane="-43573547#1_1" departPos="9.11" departSpeed="0.00" departDelay="0.10" arrival="212.00" arrivalLane="-859732802#0_0" arrivalPos="5.60" arrivalSpeed="5.51" duration="102.00" routeLength="1108.03" waitingTime="0.00" waitingCount="0" stopTime="0.00" timeLoss="21.80" rerouteNo="0" devices="tripinfo_veh157" vType="passenger" speedFactor="1.10" vaporized=""/>
    <tripinfo id="veh89" depart="63.00" departLane="-174818018#0_0" departPos="321.93" departSpeed="0.00" departDelay="0.70" arrival="214.00" arrivalLane="-40314583#3_1" arrivalPos="34.64" arrivalSpeed="15.17" duration="151.00" routeLength="1385.16" waitingTime="12.00" waitingCount="1" stopTime="0.00" timeLoss="36.31" rerouteNo="0" devices="tripinfo_veh89" vType="passenger" speedFactor="1.10" vaporized=""/>
    <personinfo id="ped9" depart="45.00" type="DEFAULT_PEDTYPE" speedFactor="1.19" duration="171.00" waitingTime="0.00" timeLoss="16.21" traveltime="171.00">
        <walk depart="45.00" departPos="0.00" arrival="216.00" arrivalPos="28.11" duration="171.00" routeLength="255.23" timeLoss="16.21" maxSpeed="1.65"/>
    </personinfo>
    <tripinfo id="veh183" depart="129.00" departLane="-40330571#3_1" departPos="171.90" departSpeed="0.00" departDelay="0.90" arrival="216.00" arrivalLane="1250915723#1_1" arrivalPos="57.17" arrivalSpeed="4.96" duration="87.00" routeLength="559.15" waitingTime="1.00" waitingCount="1" stopTime="0.00" timeLoss="16.53" rerouteNo="0" devices="tripinfo_veh183" vType="passenger" speedFactor="0.92" vaporized=""/>
    <tripinfo id="veh24" depart="17.00" departLane="-48778505#1_1" departPos="50.99" departSpeed="0.00" departDelay="0.20" arrival="220.00" arrivalLane="-223942064#0_0" arrivalPos="352.88" arrivalSpeed="15.94" duration="203.00" routeLength="2499.46" waitingTime="8.00" waitingCount="1" stopTime="0.00" timeLoss="42.64" rerouteNo="0" devices="tripinfo_veh24" vType="passenger" speedFactor="1.15" vaporized=""/>
    <tripinfo id="veh204" depart="143.00" departLane="-43544624#0_1" departPos="157.73" departSpeed="0.00" departDelay="0.20" arrival="221.00" arrivalLane="-43546109_1" arrivalPos="180.58" arrivalSpeed="16.51" duration="78.00" routeLength="993.99" waitingTime="0.00" waitingCount="0" stopTime="0.00" timeLoss="19.47" rerouteNo="0" devices="tripinfo_veh204" vType="passenger" speedFactor="1.26" vaporized=""/>
    <tripinfo id="veh213" depart="150.00" departLane="222605085#0_1" departPos="20.36" departSpeed="0.00" departDelay="0.90" arrival="223.00" arrivalLane="-945794107_1" arrivalPos="125.84" arrivalSpeed="7.21" duration="73.00" routeLength="744.86" waitingTime="0.00" waitingCount="0" stopTime="0.00" timeLoss="9.17" rerouteNo="0" devices="tripinfo_veh213" vType="passenger" speedFactor="0.96" vaporized=""/>
    <tripinfo id="veh191" depart="134.00" departLane="-43546105#0_1" departPos="57.11" departSpeed="0.00" departDelay="0.30" arrival="224.00" arrivalLane="-43544197#8_1" arrivalPos="132.21" arrivalSpeed="14.66" duration="90.00" routeLength="1115.18" waitingTime="0.00" waitingCount="0" stopTime="0.00" timeLoss="15.96" rerouteNo="0" devices="tripinfo_veh191" vType="motorcycle" speedFactor="1.14" vaporized=""/>
    <tripinfo id="veh197" depart="138.00" departLane="48778443#2_1" departPos="1.72" departSpeed="0.00" departDelay="0.10" arrival="224.00" arrivalLane="48736613#2_1" arrivalPos="169.84" arrivalSpeed="11.00" duration="86.00" routeLength="706.09" waitingTime="0.00" waitingCount="0" stopTime="0.00" timeLoss="13.49" rerouteNo="0" devices="tripinfo_veh197" vType="passenger" speedFactor="0.85" vaporized=""/>
    <tripinfo id="veh207" depart="145.00" departLane="40329447_1" departPos="2.94" departSpeed="0.00" departDelay="0.10" arrival="224.00" arrivalLane="48778464#2_1" arrivalPos="24.43" arrivalSpeed="10.39" duration="79.00" routeLength="668.49" waitingTime="0.00" waitingCount="0" stopTime="0.00" timeLoss="16.99" rerouteNo="0" devices="tripinfo_veh207" vType="passenger" speedFactor="0.96" vaporized=""/>
    <tripinfo id="veh41" depart="29.00" departLane="48778443#0_1" departPos="0.29" departSpeed="0.00" departDelay="0.30" arrival="225.00" arrivalLane="1137794254_1" arrivalPos="26.75" arrivalSpeed="13.74" duration="196.00" routeLength="1869.34" waitingTime="19.00" waitingCount="2" stopTime="0.00" timeLoss="60.88" rerouteNo="0" devices="tripinfo_veh41" vType="passenger" speedFactor="1.05" vaporized=""/>
    <tripinfo id="veh73" depart="52.00" departLane="33913538#4_1" departPos="10.20" departSpeed="0.00" departDelay="0.90" arrival="225.00" arrivalLane="48778446#1_1" arrivalPos="15.44" arrivalSpeed="11.12" duration="173.00" routeLength="1366.53" waitingTime="33.00" waitingCount="1" stopTime="0.00" timeLoss="57.45" rerouteNo="0" devices="tripinfo_veh73" vType="passenger" speedFactor="0.86" vaporized=""/>
    <tripinfo id="veh34" depart="24.00" departLane="48736640#0_1" departPos="25.46" departSpeed="0.00" departDelay="0.20" arrival="226.00" arrivalLane="40334245#2_1" arrivalPos="3.64" arrivalSpeed="13.78" duration="202.00" routeLength="2026.63" waitingTime="8.00" waitingCount="2" stopTime="0.00" timeLoss="54.13" rerouteNo="0" devices="tripinfo_veh34" vType="passenger" speedFactor="1.04" vaporized=""/>
    <tripinfo id="veh127" depart="89.00" departLane="1250915721#0_1" departPos="0.13" departSpeed="0.00" departDelay="0.10" arrival="226.00" arrivalLane="353939570#3_2" arrivalPos="276.18" arrivalSpeed="13.41" duration="137.00" routeLength="1314.24" waitingTime="0.00" waitingCount="0" stopTime="0.00" timeLoss="17.77" rerouteNo="0" devices="tripinfo_veh127" vType="delivery" speedFactor="1.00" vaporized=""/>
    <tripinfo id="veh108" depart="76.00" departLane="48797765#1_1" departPos="14.34" departSpeed="0.00" departDelay="0.40" arrival="227.00" arrivalLane="-354259933#1_1" arrivalPos="31.84" arrivalSpeed="12.97" duration="151.00" routeLength="1614.57" waitingTime="0.00" waitingCount="0" stopTime="0.00" timeLoss="30.45" rerouteNo="0" devices="tripinfo_veh108" vType="motorcycle" speedFactor="1.04" vaporized=""/>
    <tripinfo id="veh74" depart="52.00" departLane="-40266910_1" departPos="123.46" departSpeed="0.00" departDelay="0.20" arrival="230.00" arrivalLane="43546688#0_1" arrivalPos="19.83" arrivalSpeed="10.97" duration="178.00" routeLength="1661.26" waitingTime="4.00" waitingCount="2" stopTime="0.00" timeLoss="39.31" rerouteNo="0" devices="tripinfo_veh74" vType="passenger" speedFactor="0.91" vaporized=""/>
    <tripinfo id="veh249" depart="175.00" departLane="1001108554_1" departPos="1.23" departSpeed="0.00" departDelay="0.70" arrival="231.00" arrivalLane="-1250915720#3_1" arrivalPos="2.51" arrivalSpeed="4.29" duration="56.00" routeLength="251.33" waitingTime="0.00" waitingCount="0" stopTime="0.00" timeLoss="10.54" rerouteNo="0" devices="tripinfo_veh249" vType="emergency" speedFactor="1.00" vaporized=""/>
    <tripinfo id="veh133" depart="94.00" departLane="-43546688#0_1" departPos="15.41" departSpeed="0.00" departDelay="0.90" arrival="232.00" arrivalLane="43546343#0_1" arrivalPos="136.61" arrivalSpeed="14.82" duration="138.00" routeLength="1265.21" waitingTime="24.00" waitingCount="1" stopTime="0.00" timeLoss="52.31" rerouteNo="0" devices="tripinfo_veh133" vType="passenger" speedFactor="1.13" vaporized=""/>