<?xml version="1.0" encoding="UTF-8"?>

<!-- generated on 2025-06-12 11:35:27 by Eclipse SUMO sumo Version 1.22.0
<sumoConfiguration xmlns:xsi="http://www.w3.org/2001/XMLSchema-instance" xsi:noNamespaceSchemaLocation="http://sumo.dlr.de/xsd/sumoConfiguration.xsd">

    <input>
        <net-file value="E:/licenta/oras-mediu/2025-06-05-11-45-23/osm.net.xml"/>
        <route-files value="E:/licenta/oras-mediu/2025-06-05-11-45-23/full.rou.xml,E:/licenta/oras-mediu/2025-06-05-11-45-23/ ped.rou.xml,E:/licenta/oras-mediu/2025-06-05-11-45-23/ truck.rou.xml"/>
        <additional-files value="E:/licenta/oras-mediu/2025-06-05-11-45-23/osm.poly.xml,E:/licenta/oras-mediu/2025-06-05-11-45-23/ vtypes.xml"/>
    </input>

    <output>
        <summary-output value="E:/licenta/oras-mediu/2025-06-05-11-45-23/summary.xml"/>
        <tripinfo-output value="E:/licenta/oras-mediu/2025-06-05-11-45-23/tripinfo.xml"/>
    </output>

    <processing>
        <ignore-route-errors value="true"/>
        <tls.actuated.jam-threshold value="30"/>
    </processing>

    <routing>
        <device.rerouting.adaptation-steps value="18"/>
        <device.rerouting.adaptation-interval value="10"/>
    </routing>

    <report>
        <verbose value="true"/>
        <duration-log.statistics value="true"/>
        <no-step-log value="true"/>
    </report>

    <traci_server>
        <remote-port value="62896"/>
    </traci_server>

    <gui_only>
        <gui-settings-file value="E:/licenta/oras-mediu/2025-06-05-11-45-23/osm.view.xml"/>
    </gui_only>

</sumoConfiguration>
-->

<tripinfos xmlns:xsi="http://www.w3.org/2001/XMLSchema-instance" xsi:noNamespaceSchemaLocation="http://sumo.dlr.de/xsd/tripinfo_file.xsd">
    <tripinfo id="veh5" depart="4.00" departLane="-1158942155_1" departPos="29.70" departSpeed="0.00" departDelay="0.75" arrival="56.00" arrivalLane="-48778501_1" arrivalPos="136.18" arrivalSpeed="13.48" duration="52.00" routeLength="395.57" waitingTime="6.00" waitingCount="1" stopTime="0.00" timeLoss="20.63" rerouteNo="0" devices="tripinfo_veh5" vType="passenger" speedFactor="1.02" vaporized=""/>
    <tripinfo id="veh7" depart="5.00" departLane="40266620_1" departPos="21.88" departSpeed="0.00" departDelay="0.45" arrival="67.00" arrivalLane="-43546688#0_1" arrivalPos="19.83" arrivalSpeed="12.26" duration="62.00" routeLength="571.28" waitingTime="0.00" waitingCount="0" stopTime="0.00" timeLoss="13.81" rerouteNo="0" devices="tripinfo_veh7" vType="passenger" speedFactor="0.92" vaporized=""/>
    <tripinfo id="veh48" depart="32.00" departLane="-48778505#3_1" departPos="6.43" departSpeed="0.00" departDelay="0.80" arrival="77.00" arrivalLane="-383582513_0" arrivalPos="62.69" arrivalSpeed="4.59" duration="45.00" routeLength="398.99" waitingTime="0.00" waitingCount="0" stopTime="0.00" timeLoss="9.60" rerouteNo="0" devices="tripinfo_veh48" vType="passenger" speedFactor="1.05" vaporized=""/>
    <tripinfo id="veh60" depart="39.00" departLane="264868325_1" departPos="58.00" departSpeed="0.00" departDelay="0.00" arrival="79.00" arrivalLane="48778503#1_1" arrivalPos="56.23" arrivalSpeed="12.80" duration="40.00" routeLength="353.52" waitingTime="0.00" waitingCount="0" stopTime="0.00" timeLoss="10.65" rerouteNo="0" devices="tripinfo_veh60" vType="passenger" speedFactor="0.96" vaporized=""/>
    <tripinfo id="veh27" depart="18.00" departLane="43544197#2_1" departPos="1.18" departSpeed="0.00" departDelay="0.45" arrival="80.00" arrivalLane="-383582518#0_0" arrivalPos="49.42" arrivalSpeed="5.62" duration="62.00" routeLength="554.98" waitingTime="0.00" waitingCount="0" stopTime="0.00" timeLoss="17.02" rerouteNo="0" devices="tripinfo_veh27" vType="passenger" speedFactor="1.15" vaporized=""/>
    <tripinfo id="veh121" depart="79.00" departLane="-40265793#0_1" departPos="53.88" departSpeed="0.00" departDelay="0.35" arrival="92.00" arrivalLane="-67712683_1" arrivalPos="77.22" arrivalSpeed="14.38" duration="13.00" routeLength="104.16" waitingTime="0.00" waitingCount="0" stopTime="0.00" timeLoss="4.56" rerouteNo="0" devices="tripinfo_veh121" vType="passenger" speedFactor="1.06" vaporized=""/>
    <tripinfo id="veh3" depart="2.00" departLane="E42_1" departPos="135.52" departSpeed="0.00" departDelay="0.05" arrival="96.00" arrivalLane="-222605084#7_1" arrivalPos="34.66" arrivalSpeed="5.11" duration="94.00" routeLength="854.60" waitingTime="0.00" waitingCount="0" stopTime="0.00" timeLoss="10.98" rerouteNo="0" devices="tripinfo_veh3" vType="passenger" speedFactor="1.08" vaporized=""/>
    <tripinfo id="veh72" depart="47.00" departLane="-40236144#0_1" departPos="30.02" departSpeed="0.00" departDelay="0.20" arrival="104.00" arrivalLane="1136283379#1_1" arrivalPos="30.99" arrivalSpeed="8.28" duration="57.00" routeLength="459.43" waitingTime="0.00" waitingCount="0" stopTime="0.00" timeLoss="16.88" rerouteNo="0" devices="tripinfo_veh72" vType="passenger" speedFactor="1.02" vaporized=""/>
    <tripinfo id="veh56" depart="37.00" departLane="43546064#2_1" departPos="8.73" departSpeed="0.00" departDelay="0.60" arrival="115.00" arrivalLane="43544184#0_1" arrivalPos="27.15" arrivalSpeed="12.04" duration="78.00" routeLength="892.18" waitingTime="0.00" waitingCount="0" stopTime="0.00" timeLoss="16.70" rerouteNo="0" devices="tripinfo_veh56" vType="passenger" speedFactor="1.12" vaporized=""/>
    <tripinfo id="veh115" depart="75.00" departLane="48736637_1" departPos="0.78" departSpeed="0.00" departDelay="0.25" arrival="127.00" arrivalLane="250295383#4_1" arrivalPos="21.91" arrivalSpeed="13.40" duration="52.00" routeLength="544.06" waitingTime="1.00" waitingCount="1" stopTime="0.00" timeLoss="12.04" rerouteNo="0" devices="tripinfo_veh115" vType="motorcycle" speedFactor="1.04" vaporized=""/>
    <tripinfo id="veh87" depart="57.00" departLane="-530103972_1" departPos="9.93" departSpeed="0.00" departDelay="0.45" arrival="128.00" arrivalLane="-1054663939_1" arrivalPos="21.68" arrivalSpeed="8.18" duration="71.00" routeLength="558.19" waitingTime="0.00" waitingCount="0" stopTime="0.00" timeLoss="15.26" rerouteNo="0" devices="tripinfo_veh87" vType="passenger" speedFactor="1.06" vaporized=""/>
    <tripinfo id="veh130" depart="85.00" departLane="-40236153#0_1" departPos="24.32" departSpeed="0.00" departDelay="0.50" arrival="139.00" arrivalLane="48797765#2_1" arrivalPos="21.05" arrivalSpeed="14.54" duration="54.00" routeLength="491.81" waitingTime="0.00" waitingCount="0" stopTime="0.00" timeLoss="16.87" rerouteNo="0" devices="tripinfo_veh130" vType="passenger" speedFactor="1.07" vaporized=""/>
    <personinfo id="ped20" depart="100.00" type="DEFAULT_PEDTYPE" speedFactor="1.02" duration="41.00" waitingTime="0.00" timeLoss="4.75" traveltime="41.00">
        <walk depart="100.00" departPos="0.00" arrival="141.00" arrivalPos="7.92" duration="41.00" routeLength="51.58" timeLoss="4.75" maxSpeed="1.42"/>
    </personinfo>
    <personinfo id="ped28" depart="140.00" type="DEFAULT_PEDTYPE" speedFactor="0.88" duration="12.00" waitingTime="0.00" timeLoss="2.07" traveltime="12.00">
        <walk depart="140.00" departPos="0.00" arrival="152.00" arrivalPos="12.19" duration="12.00" routeLength="12.19" timeLoss="2.07" maxSpeed="1.23"/>
    </personinfo>
    <tripinfo id="veh164" depart="107.00" departLane="-492965073#5_1" departPos="83.71" departSpeed="0.00" departDelay="0.40" arrival="153.00" arrivalLane="48736640#1_1" arrivalPos="66.91" arrivalSpeed="15.69" duration="46.00" routeLength="483.12" waitingTime="0.00" waitingCount="0" stopTime="0.00" timeLoss="13.93" rerouteNo="0" devices="tripinfo_veh164" vType="passenger" speedFactor="1.15" vaporized=""/>
    <tripinfo id="veh25" depart="17.00" departLane="-48736647#1_1" departPos="52.43" departSpeed="0.00" departDelay="0.75" arrival="154.00" arrivalLane="-43547256#0_1" arrivalPos="394.57" arrivalSpeed="14.77" duration="137.00" routeLength="1784.62" waitingTime="0.00" waitingCount="0" stopTime="0.00" timeLoss="21.96" rerouteNo="0" devices="tripinfo_veh25" vType="passenger" speedFactor="1.13" vaporized=""/>
    <tripinfo id="veh66" depart="43.00" departLane="48778497_1" departPos="205.15" departSpeed="0.00" departDelay="0.10" arrival="154.00" arrivalLane="-43544001#2_1" arrivalPos="52.62" arrivalSpeed="14.32" duration="111.00" routeLength="1384.33" waitingTime="0.00" waitingCount="0" stopTime="0.00" timeLoss="19.89" rerouteNo="0" devices="tripinfo_veh66" vType="passenger" speedFactor="1.12" vaporized=""/>
    <tripinfo id="veh54" depart="36.00" departLane="40266909#0_1" departPos="48.26" departSpeed="0.00" departDelay="0.90" arrival="156.00" arrivalLane="258551321_1" arrivalPos="124.63" arrivalSpeed="13.62" duration="120.00" routeLength="835.87" waitingTime="42.00" waitingCount="1" stopTime="0.00" timeLoss="58.74" rerouteNo="0" devices="tripinfo_veh54" vType="passenger" speedFactor="1.02" vaporized=""/>
    <tripinfo id="veh132" depart="86.00" departLane="-1054663943_1" departPos="9.83" departSpeed="0.00" departDelay="0.20" arrival="159.00" arrivalLane="48736646#0_1" arrivalPos="88.26" arrivalSpeed="15.33" duration="73.00" routeLength="911.57" waitingTime="0.00" waitingCount="0" stopTime="0.00" timeLoss="14.40" rerouteNo="0" devices="tripinfo_veh132" vType="passenger" speedFactor="1.18" vaporized=""/>
    <tripinfo id="veh100" depart="65.00" departLane="-859732801#1_1" departPos="11.61" departSpeed="0.00" departDelay="0.00" arrival="160.00" arrivalLane="-43546793_1" arrivalPos="192.09" arrivalSpeed="13.68" duration="95.00" routeLength="1099.20" waitingTime="0.00" waitingCount="0" stopTime="0.00" timeLoss="13.17" rerouteNo="0" devices="tripinfo_veh100" vType="passenger" speedFactor="0.99" vaporized=""/>
    <tripinfo id="veh0" depart="0.00" departLane="48778475#1_1" departPos="23.16" departSpeed="0.00" departDelay="0.00" arrival="162.00" arrivalLane="48778494#1_1" arrivalPos="15.92" arrivalSpeed="12.48" duration="162.00" routeLength="1127.33" waitingTime="55.00" waitingCount="1" stopTime="0.00" timeLoss="74.90" rerouteNo="0" devices="tripinfo_veh0" vType="motorcycle" speedFactor="0.98" vaporized=""/>
    <tripinfo id="veh30" depart="20.00" departLane="-994065252_0" departPos="33.07" departSpeed="0.00" departDelay="0.50" arrival="163.00" arrivalLane="647610982#0_1" arrivalPos="197.95" arrivalSpeed="12.36" duration="143.00" routeLength="1513.71" waitingTime="0.00" waitingCount="0" stopTime="0.00" timeLoss="13.99" rerouteNo="0" devices="tripinfo_veh30" vType="passenger" speedFactor="0.97" vaporized=""/>
    <tripinfo id="veh36" depart="24.00" departLane="43544184#1_1" departPos="0.09" departSpeed="0.00" departDelay="0.60" arrival="169.00" arrivalLane="250295380#0_1" arrivalPos="168.52" arrivalSpeed="13.05" duration="145.00" routeLength="1670.34" waitingTime="0.00" waitingCount="0" stopTime="0.00" timeLoss="24.09" rerouteNo="0" devices="tripinfo_veh36" vType="passenger" speedFactor="1.03" vaporized=""/>
    <tripinfo id="veh183" depart="119.00" departLane="996984132_0" departPos="70.71" departSpeed="0.00" departDelay="0.05" arrival="170.00" arrivalLane="43573547#2_1" arrivalPos="42.00" arrivalSpeed="5.88" duration="51.00" routeLength="248.23" waitingTime="1.00" waitingCount="1" stopTime="0.00" timeLoss="9.02" rerouteNo="0" devices="tripinfo_veh183" vType="bicycle" speedFactor="1.07" vaporized=""/>
    <tripinfo id="veh114" depart="75.00" departLane="-40236153#1_1" departPos="16.77" departSpeed="0.00" departDelay="0.90" arrival="175.00" arrivalLane="-48778461#0_1" arrivalPos="53.57" arrivalSpeed="14.37" duration="100.00" routeLength="1035.49" waitingTime="0.00" waitingCount="0" stopTime="0.00" timeLoss="23.85" rerouteNo="0" devices="tripinfo_veh114" vType="passenger" speedFactor="1.04" vaporized=""/>
    <tripinfo id="veh175" depart="114.00" departLane="43546109_1" departPos="32.23" departSpeed="0.00" departDelay="0.25" arrival="176.00" arrivalLane="40304754#3_1" arrivalPos="54.89" arrivalSpeed="13.60" duration="62.00" routeLength="660.40" waitingTime="0.00" waitingCount="0" stopTime="0.00" timeLoss="11.56" rerouteNo="0" devices="tripinfo_veh175" vType="passenger" speedFactor="0.98" vaporized=""/>
    <tripinfo id="veh18" depart="12.00" departLane="43573478_1" departPos="28.70" departSpeed="0.00" departDelay="0.30" arrival="178.00" arrivalLane="-40330571#2_1" arrivalPos="24.26" arrivalSpeed="13.37" duration="166.00" routeLength="1583.93" waitingTime="17.00" waitingCount="1" stopTime="0.00" timeLoss="48.19" rerouteNo="0" devices="tripinfo_veh18" vType="emergency" speedFactor="1.00" vaporized=""/>
    <personinfo id="ped15" depart="75.00" type="DEFAULT_PEDTYPE" speedFactor="0.92" duration="104.00" waitingTime="0.00" timeLoss="11.25" traveltime="104.00">
        <walk depart="75.00" departPos="0.00" arrival="179.00" arrivalPos="1.45" duration="104.00" routeLength="118.96" timeLoss="11.25" maxSpeed="1.28"/>
    </personinfo>
    <personinfo id="ped14" depart="70.00" type="DEFAULT_PEDTYPE" speedFactor="0.84" duration="109.00" waitingTime="0.00" timeLoss="11.29" traveltime="109.00">
        <walk depart="70.00" departPos="0.00" arrival="179.00" arrivalPos="30.78" duration="109.00" routeLength="113.50" timeLoss="11.29" maxSpeed="1.16"/>
    </personinfo>
    <tripinfo id="veh29" depart="19.00" departLane="-258551297#1_0" departPos="130.28" departSpeed="0.00" departDelay="0.15" arrival="179.00" arrivalLane="-1136119743#0_1" arrivalPos="24.46" arrivalSpeed="7.08" duration="160.00" routeLength="1616.59" waitingTime="0.00" waitingCount="0" stopTime="0.00" timeLoss="26.36" rerouteNo="0" devices="tripinfo_veh29" vType="passenger" speedFactor="0.99" vaporized=""/>
    <tripinfo id="veh112" depart="73.00" departLane="-48736645_1" departPos="54.61" departSpeed="0.00" departDelay="0.20" arrival="179.00" arrivalLane="-492965073#6_2" arrivalPos="1.92" arrivalSpeed="13.32" duration="106.00" routeLength="1114.06" waitingTime="1.00" waitingCount="1" stopTime="0.00" timeLoss="24.99" rerouteNo="0" devices="tripinfo_veh112" vType="passenger" speedFactor="1.03" vaporized=""/>
    <tripinfo id="veh22" depart="15.00" departLane="-40304754#2_1" departPos="24.39" departSpeed="0.00" departDelay="0.70" arrival="180.00" arrivalLane="647762524_1" arrivalPos="48.75" arrivalSpeed="13.32" duration="165.00" routeLength="1371.23" waitingTime="34.00" waitingCount="1" stopTime="0.00" timeLoss="63.05" rerouteNo="0" devices="tripinfo_veh22" vType="passenger" speedFactor="1.01" vaporized=""/>
    <tripinfo id="veh78" depart="51.00" departLane="256684296_0" departPos="73.39" departSpeed="0.00" departDelay="0.30" arrival="180.00" arrivalLane="48736612#7_1" arrivalPos="28.96" arrivalSpeed="10.48" duration="129.00" routeLength="1232.81" waitingTime="0.00" waitingCount="0" stopTime="0.00" timeLoss="16.96" rerouteNo="0" devices="tripinfo_veh78" vType="passenger" speedFactor="0.83" vaporized=""/>
    <tripinfo id="veh88" depart="58.00" departLane="-383582504#0_0" departPos="2.67" departSpeed="0.00" departDelay="0.80" arrival="181.00" arrivalLane="-250295379_1" arrivalPos="126.33" arrivalSpeed="12.04" duration="123.00" routeLength="856.49" waitingTime="32.00" waitingCount="1" stopTime="0.00" timeLoss="50.46" rerouteNo="0" devices="tripinfo_veh88" vType="passenger" speedFactor="0.89" vaporized=""/>
    <tripinfo id="veh37" depart="25.00" departLane="-258551321_1" departPos="39.64" departSpeed="0.00" departDelay="0.95" arrival="190.00" arrivalLane="48797769_1" arrivalPos="15.35" arrivalSpeed="9.87" duration="165.00" routeLength="1345.93" waitingTime="30.00" waitingCount="2" stopTime="0.00" timeLoss="67.14" rerouteNo="0" devices="tripinfo_veh37" vType="passenger" speedFactor="1.07" vaporized=""/>
    <tripinfo id="veh134" depart="88.00" departLane="43546039#3_1" departPos="18.34" departSpeed="0.00" departDelay="0.90" arrival="195.00" arrivalLane="-43544001#11_1" arrivalPos="49.44" arrivalSpeed="12.50" duration="107.00" routeLength="1061.81" waitingTime="0.00" waitingCount="0" stopTime="0.00" timeLoss="18.03" rerouteNo="0" devices="tripinfo_veh134" vType="passenger" speedFactor="0.91" vaporized=""/>
    <tripinfo id="veh162" depart="106.00" departLane="40265775#0_1" departPos="0.70" departSpeed="0.00" departDelay="0.70" arrival="201.00" arrivalLane="-48778498#1_1" arrivalPos="23.69" arrivalSpeed="11.40" duration="95.00" routeLength="969.97" waitingTime="0.00" waitingCount="0" stopTime="0.00" timeLoss="15.68" rerouteNo="0" devices="tripinfo_veh162" vType="passenger" speedFactor="0.90" vaporized=""/>
    <tripinfo id="veh170" depart="111.00" departLane="-43546105#0_1" departPos="172.57" departSpeed="0.00" departDelay="0.50" arrival="201.00" arrivalLane="353939585#1_1" arrivalPos="304.47" arrivalSpeed="12.70" duration="90.00" routeLength="1002.65" waitingTime="0.00" waitingCount="0" stopTime="0.00" timeLoss="13.97" rerouteNo="0" devices="tripinfo_veh170" vType="emergency" speedFactor="1.00" vaporized=""/>
    <tripinfo id="veh96" depart="63.00" departLane="-43546460#4_1" departPos="79.50" departSpeed="0.00" departDelay="0.60" arrival="202.00" arrivalLane="43544179#6_1" arrivalPos="35.50" arrivalSpeed="14.86" duration="139.00" routeLength="1810.13" waitingTime="0.00" waitingCount="0" stopTime="0.00" timeLoss="16.34" rerouteNo="0" devices="tripinfo_veh96" vType="passenger" speedFactor="1.10" vaporized=""/>
    <personinfo id="ped1" depart="5.00" type="DEFAULT_PEDTYPE" speedFactor="0.83" duration="198.00" waitingTime="0.00" timeLoss="21.56" traveltime="198.00">
        <walk depart="5.00" departPos="0.00" arrival="203.00" arrivalPos="17.31" duration="198.00" routeLength="203.65" timeLoss="21.56" maxSpeed="1.15"/>
    </personinfo>
    <tripinfo id="veh39" depart="26.00" departLane="-48736613#2_1" departPos="47.74" departSpeed="0.00" departDelay="0.65" arrival="210.00" arrivalLane="-48778505#1_1" arrivalPos="53.40" arrivalSpeed="12.78" duration="184.00" routeLength="2041.83" waitingTime="0.00" waitingCount="0" stopTime="0.00" timeLoss="32.01" rerouteNo="0" devices="tripinfo_veh39" vType="emergency" speedFactor="1.00" vaporized=""/>
    <tripinfo id="veh97" depart="64.00" departLane="258551281_1" departPos="32.87" departSpeed="0.00" departDelay="0.95" arrival="211.00" arrivalLane="1001108554_1" arrivalPos="3.48" arrivalSpeed="4.90" duration="147.00" routeLength="1273.52" waitingTime="5.00" waitingCount="1" stopTime="0.00" timeLoss="26.07" rerouteNo="0" devices="tripinfo_veh97" vType="passenger" speedFactor="0.97" vaporized=""/>
    <tripinfo id="veh76" depart="50.00" departLane="40329447_1" departPos="5.46" departSpeed="0.00" departDelay="0.60" arrival="212.00" arrivalLane="43573547#3_1" arrivalPos="51.38" arrivalSpeed="13.72" duration="162.00" routeLength="1739.37" waitingTime="10.00" waitingCount="1" stopTime="0.00" timeLoss="33.34" rerouteNo="0" devices="tripinfo_veh76" vType="passenger" speedFactor="1.01" vaporized=""/>
    <tripinfo id="veh4" depart="3.00" departLane="-43573573#4_1" departPos="54.73" departSpeed="0.00" departDelay="0.40" arrival="215.00" arrivalLane="92198453#4_1" arrivalPos="61.61" arrivalSpeed="12.24" duration="212.00" routeLength="2454.71" waitingTime="0.00" waitingCount="0" stopTime="0.00" timeLoss="20.97" rerouteNo="0" devices="tripinfo_veh4" vType="passenger" speedFactor="0.94" vaporized=""/>
    <tripinfo id="veh182" depart="119.00" departLane="-48778446#0_1" departPos="51.53" departSpeed="0.00" departDelay="0.70" arrival="217.00" arrivalLane="-40299739#2_1" arrivalPos="43.24" arrivalSpeed="12.44" duration="98.00" routeLength="596.27" waitingTime="45.00" waitingCount="1" stopTime="0.00" timeLoss="53.51" rerouteNo="0" devices="tripinfo_veh182" vType="motorcycle" speedFactor="1.01" vaporized=""/>
    <tripinfo id="veh158" depart="103.00" departLane="-43544197#4_1" departPos="4.00" departSpeed="0.00" departDelay="0.30" arrival="221.00" arrivalLane="1137794254_2" arrivalPos="26.75" arrivalSpeed="16.24" duration="118.00" routeLength="1396.61" waitingTime="0.00" waitingCount="0" stopTime="0.00" timeLoss="28.55" rerouteNo="0" devices="tripinfo_veh158" vType="passenger" speedFactor="1.18" vaporized=""/>
    <tripinfo id="veh68" depart="45.00" departLane="-383582504#0_0" departPos="2.10" departSpeed="0.00" departDelay="0.80" arrival="225.00" arrivalLane="-43544624#0_1" arrivalPos="295.18" arrivalSpeed="12.14" duration="180.00" routeLength="2026.86" waitingTime="0.00" waitingCount="0" stopTime="0.00" timeLoss="18.09" rerouteNo="0" devices="tripinfo_veh68" vType="passenger" speedFactor="0.92" vaporized=""/>
    <tripinfo id="veh298" depart="194.00" departLane="-1250915721#1_1" departPos="3.79" departSpeed="0.00" departDelay="0.30" arrival="227.00" arrivalLane="1250915720#2_1" arrivalPos="2.90" arrivalSpeed="3.66" duration="33.00" routeLength="134.82" waitingTime="0.00" waitingCount="0" stopTime="0.00" timeLoss="4.30" rerouteNo="0" devices="tripinfo_veh298" vType="passenger" speedFactor="0.86" vaporized=""/>
    <tripinfo id="veh23" depart="15.00" departLane="-48797773_1" departPos="19.32" departSpeed="0.00" departDelay="0.05" arrival="228.00" arrivalLane="-43547017#5_1" arrivalPos="24.30" arrivalSpeed="11.85" duration="213.00" routeLength="2205.96" waitingTime="0.00" waitingCount="0" stopTime="0.00" timeLoss="24.26" rerouteNo="0" devices="tripinfo_veh23" vType="passenger" speedFactor="0.87" vaporized=""/>
    <tripinfo id="veh136" depart="90.00" departLane="-40266620_1" departPos="0.55" departSpeed="0.00" departDelay="1.60" arrival="230.00" arrivalLane="-48778500#1_1" arrivalPos="81.60" arrivalSpeed="11.17" duration="140.00" routeLength="1123.31" waitingTime="13.00" waitingCount="1" stopTime="0.00" timeLoss="39.68" rerouteNo="0" devices="tripinfo_veh136" vType="passenger" speedFactor="0.88" vaporized=""/>
    <tripinfo id="veh89" depart="58.00" departLane="-48736614#0_1" departPos="43.65" departSpeed="0.00" departDelay="0.15" arrival="232.00" arrivalLane="530103972_1" arrivalPos="49.14" arrivalSpeed="2.64" duration="174.00" routeLength="1335.14" waitingTime="23.00" waitingCount="3" stopTime="0.00" timeLoss="67.92" rerouteNo="0" devices="tripinfo_veh89" vType="passenger" speedFactor="1.08" vaporized=""/>
    <tripinfo id="veh242" depart="158.00" departLane="E37_2" departPos="23.57" departSpeed="0.00" departDelay="0.70" arrival="234.00" arrivalLane="-383582493_1" arrivalPos="258.32" arrivalSpeed="8.68" duration="76.00" routeLength="673.83" waitingTime="8.00" waitingCount="1" stopTime="0.00" timeLoss="21.10" rerouteNo="0" devices="tripinfo_veh242" vType="passenger" speedFactor="1.14" vaporized=""/>
    <tripinfo id="veh41" depart="27.00" departLane="43546105#1_1" departPos="133.12" departSpeed="0.00" departDelay="0.35" arrival="235.00" arrivalLane="48797770_1" arrivalPos="20.27" arrivalSpeed="11.90" duration="208.00" routeLength="2484.49" waitingTime="0.00" waitingCount="0" stopTime="0.00" timeLoss="38.38" rerouteNo="0" devices="tripinfo_veh41" vType="passenger" speedFactor="1.09" vaporized=""/>
    <tripinfo id="veh197" depart="129.00" departLane="264868325_1" departPos="8.94" departSpeed="0.00" departDelay="0.95" arrival="237.00" arrivalLane="48797774_1" arrivalPos="99.58" arrivalSpeed="14.12" duration="108.00" routeLength="867.16" waitingTime="18.00" waitingCount="3" stopTime="0.00" timeLoss="48.70" rerouteNo="0" devices="tripinfo_veh197" vType="motorcycle" speedFactor="1.14" vaporized=""/>
    <tripinfo id="veh75" depart="49.00" departLane="48778461#0_1" departPos="14.47" departSpeed="0.00" departDelay="0.25" arrival="238.00" arrivalLane="48778501_1" arrivalPos="145.66" arrivalSpeed="12.99" duration="189.00" routeLength="1850.70" waitingTime="0.00" waitingCount="0" stopTime="0.00" timeLoss="42.91" rerouteNo="0" devices="tripinfo_veh75" vType="passenger" speedFactor="0.98" vaporized=""/>
    <tripinfo id="veh171" depart="112.00" departLane="-48778473#2_1" departPos="4.91" departSpeed="0.00" departDelay="0.85" arrival="239.00" arrivalLane="48778493#1_1" arrivalPos="26.41" arrivalSpeed="13.64" duration="127.00" routeLength="921.53" waitingTime="26.00" waitingCount="3" stopTime="0.00" timeLoss="60.97" rerouteNo="0" devices="tripinfo_veh171" vType="passenger" speedFactor="1.07" vaporized=""/>
    <tripinfo id="veh74" depart="51.00" departLane="-48778510#0_1" departPos="1.70" departSpeed="0.00" departDelay="2.90" arrival="240.00" arrivalLane="48778479_1" arrivalPos="433.06" arrivalSpeed="12.59" duration="189.00" routeLength="2143.80" waitingTime="0.00" waitingCount="0" stopTime="0.00" timeLoss="27.17" rerouteNo="0" devices="tripinfo_veh74" vType="passenger" speedFactor="0.98" vaporized=""/>
    <tripinfo id="veh173" depart="113.00" departLane="-48778494#1_1" departPos="5.65" departSpeed="0.00" departDelay="0.55" arrival="240.00" arrivalLane="1136289989_1" arrivalPos="16.58" arrivalSpeed="6.28" duration="127.00" routeLength="1341.60" waitingTime="0.00" waitingCount="0" stopTime="0.00" timeLoss="25.26" rerouteNo="0" devices="tripinfo_veh173" vType="motorcycle" speedFactor="1.00" vaporized=""/>
    <tripinfo id="veh252" depart="164.00" departLane="-43544001#11_1" departPos="2.69" departSpeed="0.00" departDelay="0.20" arrival="240.00" arrivalLane="1136289992_1" arrivalPos="17.60" arrivalSpeed="8.17" duration="76.00" routeLength="682.89" waitingTime="0.00" waitingCount="0" stopTime="0.00" timeLoss="20.63" rerouteNo="0" devices="tripinfo_veh252" vType="emergency" speedFactor="1.00" vaporized=""/>
    <tripinfo id="veh15" depart="10.00" departLane="48778526_1" departPos="72.89" departSpeed="0.00" departDelay="0.25" arrival="241.00" arrivalLane="1135856746#1_1" arrivalPos="138.07" arrivalSpeed="13.89" duration="231.00" routeLength="2848.55" waitingTime="1.00" waitingCount="1" stopTime="0.00" timeLoss="31.04" rerouteNo="0" devices="tripinfo_veh15" vType="passenger" speedFactor="1.04" vaporized=""/>
    <tripinfo id="veh55" depart="36.00" departLane="984521611#0_0" departPos="2.83" departSpeed="0.00" departDelay="0.25" arrival="243.00" arrivalLane="859734514#1_0" arrivalPos="56.51" arrivalSpeed="5.28" duration="207.00" routeLength="1854.38" waitingTime="11.00" waitingCount="2" stopTime="0.00" timeLoss="53.05" rerouteNo="0" devices="tripinfo_veh55" vType="passenger" speedFactor="1.00" vaporized=""/>
    <tripinfo id="veh273" depart="178.00" departLane="-353939570#6_2" departPos="0.00" departSpeed="0.00" departDelay="0.55" arrival="245.00" arrivalLane="-222605084#4_1" arrivalPos="16.56" arrivalSpeed="4.90" duration="67.00" routeLength="264.65" waitingTime="4.00" waitingCount="2" stopTime="0.00" timeLoss="17.68" rerouteNo="0" devices="tripinfo_veh273" vType="passenger" speedFactor="0.96" vaporized=""/>
    <tripinfo id="veh263" depart="171.00" departLane="143207979#2_1" departPos="15.99" departSpeed="0.00" departDelay="0.05" arrival="246.00" arrivalLane="43544046_1" arrivalPos="104.15" arrivalSpeed="15.06" duration="75.00" routeLength="850.15" waitingTime="0.00" waitingCount="0" stopTime="0.00" timeLoss="18.40" rerouteNo="0" devices="tripinfo_veh263" vType="passenger" speedFactor="1.13" vaporized=""/>
    <tripinfo id="veh141" depart="92.00" departLane="-250295383#1_1" departPos="51.01" departSpeed="0.00" departDelay="0.35" arrival="247.00" arrivalLane="-401741889#0_1" arrivalPos="387.33" arrivalSpeed="14.50" duration="155.00" routeLength="1554.23" waitingTime="33.00" waitingCount="1" stopTime="0.00" timeLoss="54.35" rerouteNo="0" devices="tripinfo_veh141" vType="passenger" speedFactor="1.13" vaporized=""/>
    <tripinfo id="veh209" depart="136.00" departLane="383582509_0" departPos="64.74" departSpeed="0.00" departDelay="0.15" arrival="247.00" arrivalLane="40304754#2_1" arrivalPos="101.36" arrivalSpeed="11.82" duration="111.00" routeLength="1221.96" waitingTime="0.00" waitingCount="0" stopTime="0.00" timeLoss="11.37" rerouteNo="0" devices="tripinfo_veh209" vType="passenger" speedFactor="0.93" vaporized=""/>
    <tripinfo id="veh281" depart="183.00" departLane="-40299264#1_1" departPos="57.69" departSpeed="0.00" departDelay="0.35" arrival="248.00" arrivalLane="-258551281_1" arrivalPos="67.94" arrivalSpeed="13.16" duration="65.00" routeLength="675.90" waitingTime="0.00" waitingCount="0" stopTime="0.00" timeLoss="13.88" rerouteNo="0" devices="tripinfo_veh281" vType="passenger" speedFactor="1.00" vaporized=""/>
    <tripinfo id="veh61" depart="40.00" departLane="43573547#2_1" departPos="9.70" departSpeed="0.00" departDelay="0.35" arrival="250.00" arrivalLane="-48736639#0_1" arrivalPos="107.97" arrivalSpeed="12.59" duration="210.00" routeLength="2102.75" waitingTime="5.00" waitingCount="1" stopTime="0.00" timeLoss="38.78" rerouteNo="0" devices="tripinfo_veh61" vType="passenger" speedFactor="0.91" vaporized=""/>
    <tripinfo id="veh108" depart="71.00" departLane="-143207982#2_1" departPos="6.19" departSpeed="0.00" departDelay="0.80" arrival="251.00" arrivalLane="43546343#0_1" arrivalPos="136.61" arrivalSpeed="13.40" duration="180.00" routeLength="1732.74" waitingTime="27.00" waitingCount="2" stopTime="0.00" timeLoss="56.10" rerouteNo="0" devices="tripinfo_veh108" vType="passenger" speedFactor="1.03" vaporized=""/>
    <tripinfo id="veh204" depart="133.00" departLane="48778464#3_1" departPos="0.01" departSpeed="0.00" departDelay="0.40" arrival="251.00" arrivalLane="354252039#0_1" arrivalPos="50.46" arrivalSpeed="10.91" duration="118.00" routeLength="1047.16" waitingTime="0.00" waitingCount="0" stopTime="0.00" timeLoss="20.83" rerouteNo="0" devices="tripinfo_veh204" vType="passenger" speedFactor="0.85" vaporized=""/>
    <tripinfo id="veh80" depart="52.00" departLane="48778502#0_1" departPos="22.22" departSpeed="0.00" departDelay="0.00" arrival="253.00" arrivalLane="-492965073#9_1" arrivalPos="76.42" arrivalSpeed="14.43" duration="201.00" routeLength="2087.39" waitingTime="22.00" waitingCount="1" stopTime="0.00" timeLoss="53.87" rerouteNo="0" devices="tripinfo_veh80" vType="passenger" speedFactor="1.06" vaporized=""/>